REMARK SMILES COC(=O)[C@H]1c2c(cccc2OC)C[C@@H]2[C@@H]1CC[C@@]21C(=O)N(C2CC2)C(=O)[C@]1(O)C(C)(C)C
REMARK SMILES IDX 5 1 16 2 17 3 18 4 19 5 20 6 21 7 22 8 26 9 27 10 28 11
REMARK SMILES IDX 15 12 14 13 7 14 8 15 9 16 10 17 11 18 6 19 3 20 4 21 2 22
REMARK SMILES IDX 1 23 12 24 13 25 30 26 31 27 32 28 33 29 29 30 23 32 24 33
REMARK SMILES IDX 25 34
REMARK H PARENT 29 31
ROOT
ATOM      1  C   UNL     1       2.269  -0.167   1.083  1.00  0.00     0.136 C 
ATOM      2  C   UNL     1       0.774  -0.465   0.871  1.00  0.00     0.012 C 
ATOM      3  C   UNL     1      -0.016  -0.710   2.152  1.00  0.00     0.006 C 
ATOM      4  C   UNL     1      -1.474  -0.406   1.790  1.00  0.00     0.021 C 
ATOM      5  C   UNL     1      -1.463   0.380   0.441  1.00  0.00     0.091 C 
ATOM      6  C   UNL     1      -2.246   1.665   0.759  1.00  0.00     0.239 C 
ATOM      7  O   UNL     1      -1.757   2.689   1.218  1.00  0.00    -0.274 OA
ATOM      8  N   UNL     1      -3.579   1.416   0.542  1.00  0.00    -0.276 N 
ATOM      9  C   UNL     1      -3.750   0.261  -0.182  1.00  0.00     0.263 C 
ATOM     10  O   UNL     1      -4.826  -0.274  -0.413  1.00  0.00    -0.271 OA
ATOM     11  C   UNL     1      -2.368  -0.179  -0.721  1.00  0.00     0.163 C 
ATOM     12  C   UNL     1       0.038   0.717   0.250  1.00  0.00     0.017 C 
ATOM     13  C   UNL     1       0.594   1.042  -1.126  1.00  0.00     0.041 C 
ATOM     14  C   UNL     1       2.100   1.198  -1.088  1.00  0.00    -0.040 A 
ATOM     15  C   UNL     1       2.709   1.912  -2.131  1.00  0.00     0.004 A 
ATOM     16  C   UNL     1       4.085   2.112  -2.145  1.00  0.00     0.004 A 
ATOM     17  C   UNL     1       4.873   1.608  -1.113  1.00  0.00     0.047 A 
ATOM     18  C   UNL     1       4.293   0.877  -0.071  1.00  0.00     0.123 A 
ATOM     19  C   UNL     1       2.898   0.635  -0.064  1.00  0.00     0.012 A 
ENDROOT
BRANCH   1  20
ATOM     20  C   UNL     1       2.952  -1.504   1.357  1.00  0.00     0.313 C 
ATOM     21  O   UNL     1       3.118  -1.965   2.482  1.00  0.00    -0.252 OA
BRANCH  20  22
ATOM     22  O   UNL     1       3.257  -2.168   0.203  1.00  0.00    -0.469 OA
ATOM     23  C   UNL     1       3.900  -3.424   0.407  1.00  0.00     0.282 C 
ENDBRANCH  20  22
ENDBRANCH   1  20
BRANCH  18  24
ATOM     24  O   UNL     1       4.993   0.382   0.999  1.00  0.00    -0.496 OA
ATOM     25  C   UNL     1       6.412   0.436   0.942  1.00  0.00     0.278 C 
ENDBRANCH  18  24
BRANCH  11  26
ATOM     26  C   UNL     1      -2.313  -1.674  -1.276  1.00  0.00     0.001 C 
ATOM     27  C   UNL     1      -1.033  -1.943  -2.104  1.00  0.00     0.014 C 
ATOM     28  C   UNL     1      -2.398  -2.764  -0.197  1.00  0.00     0.014 C 
ATOM     29  C   UNL     1      -3.470  -1.973  -2.281  1.00  0.00     0.014 C 
ENDBRANCH  11  26
BRANCH  11  30
ATOM     30  O   UNL     1      -2.148   0.695  -1.863  1.00  0.00    -0.378 OA
ATOM     31  H   UNL     1      -2.895   0.592  -2.481  1.00  0.00     0.212 HD
ENDBRANCH  11  30
BRANCH   8  32
ATOM     32  C   UNL     1      -4.683   2.240   0.955  1.00  0.00     0.094 C 
ATOM     33  C   UNL     1      -4.660   3.744   0.857  1.00  0.00     0.028 C 
ATOM     34  C   UNL     1      -4.668   3.079   2.205  1.00  0.00     0.028 C 
ENDBRANCH   8  32
TORSDOF 6
