REMARK SMILES Cc1cc2c(cc1C)-c1c(n(C)c3ccc(O)cc13)C2=O
REMARK SMILES IDX 8 1 7 2 6 3 5 4 4 5 3 6 2 7 1 8 20 9 21 10 10 11 9 12 19 13
REMARK SMILES IDX 18 14 16 15 15 16 14 17 13 18 11 19 12 20 17 21
REMARK H PARENT 17 22
ROOT
ATOM      1  C   UNL     1      -3.764   2.256   0.357  1.00  0.00     0.044 C 
ATOM      2  C   UNL     1      -2.925   1.006   0.283  1.00  0.00    -0.048 A 
ATOM      3  C   UNL     1      -1.524   1.136   0.185  1.00  0.00     0.013 A 
ATOM      4  C   UNL     1      -0.765  -0.012   0.118  1.00  0.00    -0.004 A 
ATOM      5  C   UNL     1      -1.377  -1.284   0.146  1.00  0.00     0.032 A 
ATOM      6  C   UNL     1      -2.744  -1.446   0.241  1.00  0.00     0.016 A 
ATOM      7  C   UNL     1      -3.535  -0.286   0.311  1.00  0.00    -0.047 A 
ATOM      8  C   UNL     1      -5.031  -0.434   0.415  1.00  0.00     0.044 C 
ATOM      9  C   UNL     1      -0.307  -2.321   0.058  1.00  0.00     0.210 C 
ATOM     10  O   UNL     1      -0.453  -3.528   0.054  1.00  0.00    -0.287 OA
ATOM     11  C   UNL     1       0.893  -1.536  -0.018  1.00  0.00     0.098 A 
ATOM     12  C   UNL     1       0.656  -0.183   0.015  1.00  0.00     0.020 A 
ATOM     13  C   UNL     1       1.881   0.492  -0.064  1.00  0.00     0.012 A 
ATOM     14  C   UNL     1       2.275   1.845  -0.075  1.00  0.00     0.057 A 
ATOM     15  C   UNL     1       3.634   2.147  -0.168  1.00  0.00     0.116 A 
ATOM     16  C   UNL     1       4.598   1.152  -0.248  1.00  0.00     0.048 A 
ATOM     17  C   UNL     1       4.234  -0.197  -0.238  1.00  0.00     0.031 A 
ATOM     18  C   UNL     1       2.869  -0.513  -0.145  1.00  0.00     0.049 A 
ATOM     19  N   UNL     1       2.227  -1.749  -0.114  1.00  0.00    -0.340 N 
ATOM     20  C   UNL     1       2.884  -3.033  -0.176  1.00  0.00     0.150 C 
ENDROOT
BRANCH  15  21
ATOM     21  O   UNL     1       4.067   3.443  -0.183  1.00  0.00    -0.508 OA
ATOM     22  H   UNL     1       3.294   4.028  -0.122  1.00  0.00     0.293 HD
ENDBRANCH  15  21
TORSDOF 1
