REMARK SMILES NCCc1ccc(O)cc1
REMARK SMILES IDX 3 1 4 2 5 3 6 4 7 5 10 6 9 7 8 8 2 10 1 11
REMARK H PARENT 8 9 1 12 1 13
ROOT
ATOM      1  C   UNL     1      -1.530  -0.573  -1.005  1.00  0.00     0.050 C 
ENDROOT
BRANCH   1   2
ATOM      2  C   UNL     1      -0.098  -0.275  -0.626  1.00  0.00    -0.046 A 
ATOM      3  C   UNL     1       0.477   0.968  -0.932  1.00  0.00     0.007 A 
ATOM      4  C   UNL     1       1.798   1.247  -0.574  1.00  0.00     0.046 A 
ATOM      5  C   UNL     1       2.546   0.281   0.090  1.00  0.00     0.115 A 
ATOM      6  C   UNL     1       0.676  -1.235   0.043  1.00  0.00     0.007 A 
ATOM      7  C   UNL     1       1.995  -0.956   0.400  1.00  0.00     0.046 A 
BRANCH   5   8
ATOM      8  O   UNL     1       3.839   0.512   0.458  1.00  0.00    -0.508 OA
ATOM      9  H   UNL     1       4.086   1.407   0.174  1.00  0.00     0.293 HD
ENDBRANCH   5   8
ENDBRANCH   1   2
BRANCH   1  10
ATOM     10  C   UNL     1      -2.491  -0.633   0.192  1.00  0.00     0.082 C 
BRANCH  10  11
ATOM     11  N   UNL     1      -2.615   0.639   0.905  1.00  0.00    -0.330 NA
ATOM     12  H   UNL     1      -1.699   0.891   1.282  1.00  0.00     0.118 HD
ATOM     13  H   UNL     1      -2.850   1.379   0.245  1.00  0.00     0.118 HD
ENDBRANCH  10  11
ENDBRANCH   1  10
TORSDOF 4
