REMARK SMILES O=C(CN1CCCC1)c1ccc(N2CCN(Cc3ccccc3)CC2)cc1
REMARK SMILES IDX 9 1 10 2 11 3 12 4 26 5 27 6 2 7 1 8 3 9 4 10 5 11 8 12 6 13
REMARK SMILES IDX 7 14 13 15 14 16 25 17 15 18 24 19 16 20 17 21 18 22 19 23
REMARK SMILES IDX 23 24 20 25 22 26 21 27
REMARK H PARENT
ROOT
ATOM      1  C   UNL     1      -2.446  -0.064  -0.055  1.00  0.00     0.019 A 
ATOM      2  C   UNL     1      -1.460   0.318  -0.968  1.00  0.00     0.014 A 
ATOM      3  C   UNL     1      -0.123  -0.056  -0.775  1.00  0.00     0.026 A 
ATOM      4  C   UNL     1       0.285  -0.816   0.331  1.00  0.00     0.037 A 
ATOM      5  C   UNL     1      -0.724  -1.190   1.233  1.00  0.00     0.026 A 
ATOM      6  C   UNL     1      -2.067  -0.824   1.052  1.00  0.00     0.014 A 
ENDROOT
BRANCH   1   7
ATOM      7  C   UNL     1      -3.862   0.357  -0.308  1.00  0.00     0.176 C 
ATOM      8  O   UNL     1      -4.088   1.062  -1.291  1.00  0.00    -0.293 OA
BRANCH   7   9
ATOM      9  C   UNL     1      -4.933  -0.118   0.682  1.00  0.00     0.165 C 
BRANCH   9  10
ATOM     10  N   UNL     1      -6.318   0.266   0.382  1.00  0.00    -0.296 NA
ATOM     11  C   UNL     1      -6.592   1.699   0.411  1.00  0.00     0.085 C 
ATOM     12  C   UNL     1      -6.853  -0.240  -0.876  1.00  0.00     0.085 C 
ATOM     13  C   UNL     1      -7.937   1.831  -0.297  1.00  0.00     0.017 C 
ATOM     14  C   UNL     1      -8.189   0.478  -0.951  1.00  0.00     0.017 C 
ENDBRANCH   9  10
ENDBRANCH   7   9
ENDBRANCH   1   7
BRANCH   4  15
ATOM     15  N   UNL     1       1.603  -1.191   0.519  1.00  0.00    -0.369 N 
ATOM     16  C   UNL     1       2.129  -1.510   1.860  1.00  0.00     0.132 C 
ATOM     17  C   UNL     1       2.594  -1.130  -0.570  1.00  0.00     0.132 C 
ATOM     18  C   UNL     1       3.631  -1.148   1.968  1.00  0.00     0.106 C 
ATOM     19  C   UNL     1       3.785  -2.077  -0.287  1.00  0.00     0.106 C 
ATOM     20  N   UNL     1       4.477  -1.852   0.992  1.00  0.00    -0.296 NA
BRANCH  20  21
ATOM     21  C   UNL     1       5.841  -1.327   0.882  1.00  0.00     0.120 C 
BRANCH  21  22
ATOM     22  C   UNL     1       6.003   0.052   0.273  1.00  0.00    -0.034 A 
ATOM     23  C   UNL     1       6.189   0.211  -1.109  1.00  0.00     0.005 A 
ATOM     24  C   UNL     1       5.990   1.198   1.083  1.00  0.00     0.005 A 
ATOM     25  C   UNL     1       6.338   1.483  -1.667  1.00  0.00     0.000 A 
ATOM     26  C   UNL     1       6.139   2.469   0.524  1.00  0.00     0.000 A 
ATOM     27  C   UNL     1       6.309   2.611  -0.851  1.00  0.00     0.000 A 
ENDBRANCH  21  22
ENDBRANCH  20  21
ENDBRANCH   4  15
TORSDOF 6
