REMARK SMILES CC(C)C[C@H](NC(=O)[C@@H]1CCCN1C(=O)CNC(=O)CNC(=O)[C@@H](N)Cc1ccc(O)cc1)C(=O)O
REMARK SMILES IDX 18 1 19 2 17 3 20 5 21 6 22 7 23 8 24 10 25 11 26 14 27 15
REMARK SMILES IDX 28 16 33 17 29 18 32 19 30 20 31 21 16 23 14 24 15 25 13 26
REMARK SMILES IDX 12 27 9 28 11 29 10 30 7 31 8 32 6 33 5 35 4 36 2 37 1 38
REMARK SMILES IDX 3 39 34 40 35 41 36 42
REMARK H PARENT 17 4 21 9 25 12 25 13 31 22 6 34 36 43
ROOT
ATOM      1  C   UNL     1      -1.418  -0.436   0.851  1.00  0.00     0.239 C 
ATOM      2  O   UNL     1      -1.260   0.078  -0.256  1.00  0.00    -0.273 OA
ATOM      3  N   UNL     1      -0.375  -0.805   1.674  1.00  0.00    -0.345 N 
ATOM      4  H   UNL     1      -0.587  -0.863   2.665  1.00  0.00     0.164 HD
ENDROOT
BRANCH   1   5
ATOM      5  C   UNL     1      -2.805  -0.755   1.413  1.00  0.00     0.216 C 
BRANCH   5   6
ATOM      6  N   UNL     1      -3.770   0.145   0.812  1.00  0.00    -0.346 N 
ATOM      7  C   UNL     1      -4.953   0.463   1.438  1.00  0.00     0.237 C 
ATOM      8  O   UNL     1      -5.266   0.002   2.534  1.00  0.00    -0.273 OA
ATOM      9  H   UNL     1      -3.546   0.508  -0.108  1.00  0.00     0.164 HD
BRANCH   7  10
ATOM     10  C   UNL     1      -5.817   1.517   0.712  1.00  0.00     0.145 C 
BRANCH  10  11
ATOM     11  N   UNL     1      -5.072   2.800   0.673  1.00  0.00    -0.320 NA
ATOM     12  H   UNL     1      -4.894   3.085   1.639  1.00  0.00     0.119 HD
ATOM     13  H   UNL     1      -4.147   2.641   0.273  1.00  0.00     0.119 HD
ENDBRANCH  10  11
BRANCH  10  14
ATOM     14  C   UNL     1      -6.229   1.092  -0.707  1.00  0.00     0.064 C 
BRANCH  14  15
ATOM     15  C   UNL     1      -7.103  -0.141  -0.734  1.00  0.00    -0.046 A 
ATOM     16  C   UNL     1      -6.602  -1.359  -1.213  1.00  0.00     0.007 A 
ATOM     17  C   UNL     1      -8.427  -0.083  -0.271  1.00  0.00     0.007 A 
ATOM     18  C   UNL     1      -7.410  -2.497  -1.229  1.00  0.00     0.046 A 
ATOM     19  C   UNL     1      -9.234  -1.224  -0.284  1.00  0.00     0.046 A 
ATOM     20  C   UNL     1      -8.717  -2.422  -0.763  1.00  0.00     0.115 A 
BRANCH  20  21
ATOM     21  O   UNL     1      -9.471  -3.559  -0.791  1.00  0.00    -0.508 OA
ATOM     22  H   UNL     1     -10.347  -3.355  -0.422  1.00  0.00     0.293 HD
ENDBRANCH  20  21
ENDBRANCH  14  15
ENDBRANCH  10  14
ENDBRANCH   7  10
ENDBRANCH   5   6
ENDBRANCH   1   5
BRANCH   3  23
ATOM     23  C   UNL     1       0.970  -0.335   1.377  1.00  0.00     0.216 C 
BRANCH  23  24
ATOM     24  C   UNL     1       1.155   1.061   1.991  1.00  0.00     0.242 C 
ATOM     25  O   UNL     1       0.457   1.421   2.947  1.00  0.00    -0.273 OA
BRANCH  24  26
ATOM     26  N   UNL     1       2.148   1.867   1.482  1.00  0.00    -0.329 N 
ATOM     27  C   UNL     1       2.402   3.176   2.056  1.00  0.00     0.120 C 
ATOM     28  C   UNL     1       2.949   1.644   0.274  1.00  0.00     0.174 C 
ATOM     29  C   UNL     1       3.650   3.670   1.345  1.00  0.00     0.024 C 
ATOM     30  C   UNL     1       3.530   3.030  -0.033  1.00  0.00     0.037 C 
BRANCH  28  31
ATOM     31  C   UNL     1       4.062   0.595   0.505  1.00  0.00     0.243 C 
ATOM     32  O   UNL     1       4.210  -0.007   1.566  1.00  0.00    -0.273 OA
ATOM     33  N   UNL     1       4.847   0.335  -0.603  1.00  0.00    -0.341 N 
ATOM     34  H   UNL     1       4.852   1.024  -1.347  1.00  0.00     0.164 HD
BRANCH  33  35
ATOM     35  C   UNL     1       6.066  -0.468  -0.474  1.00  0.00     0.192 C 
BRANCH  35  36
ATOM     36  C   UNL     1       6.420  -1.174  -1.790  1.00  0.00     0.040 C 
BRANCH  36  37
ATOM     37  C   UNL     1       5.594  -2.430  -2.141  1.00  0.00    -0.015 C 
ATOM     38  C   UNL     1       4.111  -2.139  -2.365  1.00  0.00     0.007 C 
ATOM     39  C   UNL     1       5.770  -3.546  -1.110  1.00  0.00     0.007 C 
ENDBRANCH  36  37
ENDBRANCH  35  36
BRANCH  35  40
ATOM     40  C   UNL     1       7.199   0.491  -0.094  1.00  0.00     0.326 C 
ATOM     41  O   UNL     1       7.215   1.699  -0.277  1.00  0.00    -0.250 OA
BRANCH  40  42
ATOM     42  O   UNL     1       8.259  -0.133   0.456  1.00  0.00    -0.480 OA
ATOM     43  H   UNL     1       8.889   0.587   0.668  1.00  0.00     0.296 HD
ENDBRANCH  40  42
ENDBRANCH  35  40
ENDBRANCH  33  35
ENDBRANCH  28  31
ENDBRANCH  24  26
ENDBRANCH  23  24
ENDBRANCH   3  23
TORSDOF 16
