REMARK SMILES CC(C)C[C@H](NC(=O)[C@@H]1CCCN1C(=O)CNC(=O)CNC(=O)[C@@H](N)Cc1ccc(O)cc1)C(=O)O
REMARK SMILES IDX 18 1 19 2 17 3 20 5 21 6 22 7 23 8 24 10 25 11 26 14 27 15
REMARK SMILES IDX 28 16 33 17 29 18 32 19 30 20 31 21 16 23 14 24 15 25 13 26
REMARK SMILES IDX 12 27 9 28 11 29 10 30 7 31 8 32 6 33 5 35 4 36 2 37 1 38
REMARK SMILES IDX 3 39 34 40 35 41 36 42
REMARK H PARENT 17 4 21 9 25 12 25 13 31 22 6 34 36 43
ROOT
ATOM      1  C   UNL     1       1.032   1.028   2.289  1.00  0.00     0.239 C 
ATOM      2  O   UNL     1       0.575   1.710   1.373  1.00  0.00    -0.273 OA
ATOM      3  N   UNL     1       0.569  -0.237   2.591  1.00  0.00    -0.345 N 
ATOM      4  H   UNL     1       1.234  -0.866   3.029  1.00  0.00     0.164 HD
ENDROOT
BRANCH   1   5
ATOM      5  C   UNL     1       2.129   1.548   3.219  1.00  0.00     0.216 C 
BRANCH   5   6
ATOM      6  N   UNL     1       3.042   2.368   2.445  1.00  0.00    -0.346 N 
ATOM      7  C   UNL     1       4.373   2.040   2.331  1.00  0.00     0.237 C 
ATOM      8  O   UNL     1       4.923   1.227   3.071  1.00  0.00    -0.273 OA
ATOM      9  H   UNL     1       2.618   2.946   1.726  1.00  0.00     0.164 HD
BRANCH   7  10
ATOM     10  C   UNL     1       5.143   2.871   1.279  1.00  0.00     0.145 C 
BRANCH  10  11
ATOM     11  N   UNL     1       5.753   4.029   1.975  1.00  0.00    -0.320 NA
ATOM     12  H   UNL     1       6.378   3.665   2.698  1.00  0.00     0.119 HD
ATOM     13  H   UNL     1       5.021   4.527   2.485  1.00  0.00     0.119 HD
ENDBRANCH  10  11
BRANCH  10  14
ATOM     14  C   UNL     1       6.230   2.027   0.594  1.00  0.00     0.064 C 
BRANCH  14  15
ATOM     15  C   UNL     1       5.652   1.043  -0.400  1.00  0.00    -0.046 A 
ATOM     16  C   UNL     1       5.576   1.371  -1.762  1.00  0.00     0.007 A 
ATOM     17  C   UNL     1       5.166  -0.200   0.025  1.00  0.00     0.007 A 
ATOM     18  C   UNL     1       5.030   0.473  -2.679  1.00  0.00     0.046 A 
ATOM     19  C   UNL     1       4.609  -1.095  -0.890  1.00  0.00     0.046 A 
ATOM     20  C   UNL     1       4.551  -0.753  -2.236  1.00  0.00     0.115 A 
BRANCH  20  21
ATOM     21  O   UNL     1       4.026  -1.607  -3.161  1.00  0.00    -0.508 OA
ATOM     22  H   UNL     1       3.702  -2.390  -2.687  1.00  0.00     0.293 HD
ENDBRANCH  20  21
ENDBRANCH  14  15
ENDBRANCH  10  14
ENDBRANCH   7  10
ENDBRANCH   5   6
ENDBRANCH   1   5
BRANCH   3  23
ATOM     23  C   UNL     1      -0.382  -0.876   1.697  1.00  0.00     0.216 C 
BRANCH  23  24
ATOM     24  C   UNL     1       0.369  -1.562   0.544  1.00  0.00     0.242 C 
ATOM     25  O   UNL     1       1.485  -2.060   0.738  1.00  0.00    -0.273 OA
BRANCH  24  26
ATOM     26  N   UNL     1      -0.254  -1.638  -0.686  1.00  0.00    -0.329 N 
ATOM     27  C   UNL     1       0.447  -2.181  -1.834  1.00  0.00     0.120 C 
ATOM     28  C   UNL     1      -1.486  -0.950  -1.094  1.00  0.00     0.174 C 
ATOM     29  C   UNL     1      -0.106  -1.397  -3.011  1.00  0.00     0.024 C 
ATOM     30  C   UNL     1      -1.556  -1.176  -2.613  1.00  0.00     0.037 C 
BRANCH  28  31
ATOM     31  C   UNL     1      -2.754  -1.508  -0.417  1.00  0.00     0.243 C 
ATOM     32  O   UNL     1      -2.731  -2.415   0.411  1.00  0.00    -0.273 OA
ATOM     33  N   UNL     1      -3.919  -0.856  -0.772  1.00  0.00    -0.341 N 
ATOM     34  H   UNL     1      -3.915  -0.347  -1.649  1.00  0.00     0.164 HD
BRANCH  33  35
ATOM     35  C   UNL     1      -5.220  -1.388  -0.361  1.00  0.00     0.192 C 
BRANCH  35  36
ATOM     36  C   UNL     1      -6.251  -0.272  -0.149  1.00  0.00     0.040 C 
BRANCH  36  37
ATOM     37  C   UNL     1      -6.055   0.627   1.091  1.00  0.00    -0.015 C 
ATOM     38  C   UNL     1      -4.848   1.558   0.979  1.00  0.00     0.007 C 
ATOM     39  C   UNL     1      -5.994  -0.167   2.398  1.00  0.00     0.007 C 
ENDBRANCH  36  37
ENDBRANCH  35  36
BRANCH  35  40
ATOM     40  C   UNL     1      -5.698  -2.307  -1.488  1.00  0.00     0.326 C 
ATOM     41  O   UNL     1      -5.341  -2.257  -2.656  1.00  0.00    -0.250 OA
BRANCH  40  42
ATOM     42  O   UNL     1      -6.626  -3.197  -1.092  1.00  0.00    -0.480 OA
ATOM     43  H   UNL     1      -6.837  -3.709  -1.900  1.00  0.00     0.296 HD
ENDBRANCH  40  42
ENDBRANCH  35  40
ENDBRANCH  33  35
ENDBRANCH  28  31
ENDBRANCH  24  26
ENDBRANCH  23  24
ENDBRANCH   3  23
TORSDOF 16
