REMARK SMILES CN1CC[C@]23c4c5ccc(O)c4O[C@H]2[C@@H](O)C=C[C@H]3[C@H]1C5
REMARK SMILES IDX 1 1 2 2 3 3 4 4 5 5 6 6 7 7 8 8 9 9 10 10 12 11 13 12 14 13
REMARK SMILES IDX 15 14 17 15 18 16 19 17 20 18 21 19 16 20 11 22
REMARK H PARENT 16 21 11 23
ROOT
ATOM      1  C   UNL     1      -3.659  -1.431   0.837  1.00  0.00     0.105 C 
ATOM      2  N   UNL     1      -2.286  -0.933   0.828  1.00  0.00    -0.302 NA
ATOM      3  C   UNL     1      -2.120   0.194   1.744  1.00  0.00     0.085 C 
ATOM      4  C   UNL     1      -0.682   0.739   1.760  1.00  0.00     0.032 C 
ATOM      5  C   UNL     1      -0.062   0.842   0.344  1.00  0.00     0.048 C 
ATOM      6  C   UNL     1       0.904  -0.289   0.145  1.00  0.00     0.012 A 
ATOM      7  C   UNL     1       0.614  -1.552  -0.343  1.00  0.00    -0.039 A 
ATOM      8  C   UNL     1       1.670  -2.463  -0.432  1.00  0.00     0.008 A 
ATOM      9  C   UNL     1       2.977  -2.079  -0.068  1.00  0.00     0.050 A 
ATOM     10  C   UNL     1       3.242  -0.769   0.344  1.00  0.00     0.158 A 
ATOM     11  C   UNL     1       2.191   0.119   0.424  1.00  0.00     0.165 A 
ATOM     12  O   UNL     1       2.267   1.464   0.684  1.00  0.00    -0.482 OA
ATOM     13  C   UNL     1       0.969   1.985   0.224  1.00  0.00     0.217 C 
ATOM     14  C   UNL     1       1.111   2.595  -1.204  1.00  0.00     0.178 C 
ATOM     15  C   UNL     1       0.378   1.893  -2.310  1.00  0.00     0.004 C 
ATOM     16  C   UNL     1      -0.655   1.059  -2.109  1.00  0.00    -0.022 C 
ATOM     17  C   UNL     1      -1.159   0.740  -0.723  1.00  0.00     0.044 C 
ATOM     18  C   UNL     1      -1.792  -0.686  -0.554  1.00  0.00     0.068 C 
ATOM     19  C   UNL     1      -0.769  -1.823  -0.877  1.00  0.00     0.055 C 
ENDROOT
BRANCH  14  20
ATOM     20  O   UNL     1       2.475   2.727  -1.605  1.00  0.00    -0.385 OA
ATOM     21  H   UNL     1       3.000   2.201  -0.970  1.00  0.00     0.211 HD
ENDBRANCH  14  20
BRANCH  10  22
ATOM     22  O   UNL     1       4.506  -0.350   0.625  1.00  0.00    -0.504 OA
ATOM     23  H   UNL     1       5.110  -1.103   0.529  1.00  0.00     0.293 HD
ENDBRANCH  10  22
TORSDOF 2
