REMARK SMILES O=C1CN2C3=C1C(c1ccc(O)cc13)C2(c1ccc(O)cc1)C1CC1
REMARK SMILES IDX 1 1 2 2 3 3 4 4 5 5 6 6 7 7 8 8 9 9 10 10 11 11 13 12 14 13
REMARK SMILES IDX 15 14 16 15 17 16 22 17 18 18 21 19 19 20 20 21 23 23 24 24
REMARK SMILES IDX 25 25 12 26
REMARK H PARENT 20 22 12 27
ROOT
ATOM      1  O   UNL     1       2.776   0.000   0.000  1.00  0.00    -0.292 OA
ATOM      2  C   UNL     1       1.276   0.000   0.000  1.00  0.00     0.180 C 
ATOM      3  C   UNL     1       0.394   1.214   0.000  1.00  0.00     0.198 C 
ATOM      4  N   UNL     1      -1.032   0.750   0.000  1.00  0.00    -0.352 N 
ATOM      5  C   UNL     1      -1.032  -0.750   0.000  1.00  0.00     0.053 C 
ATOM      6  C   UNL     1       0.394  -1.214   0.000  1.00  0.00     0.031 C 
ATOM      7  C   UNL     1       0.394  -2.713   0.000  1.00  0.00     0.086 C 
ATOM      8  C   UNL     1      -1.032  -3.177   0.000  1.00  0.00    -0.028 A 
ATOM      9  C   UNL     1      -1.642  -4.547   0.000  1.00  0.00     0.009 A 
ATOM     10  C   UNL     1      -3.134  -4.704   0.000  1.00  0.00     0.046 A 
ATOM     11  C   UNL     1      -4.016  -3.491   0.000  1.00  0.00     0.116 A 
ATOM     12  C   UNL     1      -3.406  -2.120   0.000  1.00  0.00     0.056 A 
ATOM     13  C   UNL     1      -1.914  -1.964   0.000  1.00  0.00     0.006 A 
ATOM     14  C   UNL     1       0.245  -0.036   0.000  1.00  0.00     0.080 C 
ENDROOT
BRANCH  14  15
ATOM     15  C   UNL     1       0.894   1.316   0.000  1.00  0.00    -0.021 A 
ATOM     16  C   UNL     1       2.389   1.431   0.000  1.00  0.00     0.010 A 
ATOM     17  C   UNL     1       0.046   2.554   0.000  1.00  0.00     0.010 A 
ATOM     18  C   UNL     1       3.038   2.784   0.000  1.00  0.00     0.046 A 
ATOM     19  C   UNL     1       0.695   3.907   0.000  1.00  0.00     0.046 A 
ATOM     20  C   UNL     1       2.191   4.021   0.000  1.00  0.00     0.115 A 
BRANCH  20  21
ATOM     21  O   UNL     1       2.839   5.374   0.000  1.00  0.00    -0.508 OA
ATOM     22  H   UNL     1       1.992   6.612   0.000  1.00  0.00     0.293 HD
ENDBRANCH  20  21
ENDBRANCH  14  15
BRANCH  14  23
ATOM     23  C   UNL     1       1.658  -0.540   0.000  1.00  0.00     0.020 C 
ATOM     24  C   UNL     1       2.814  -1.496   0.000  1.00  0.00     0.007 C 
ATOM     25  C   UNL     1       1.408  -2.019   0.000  1.00  0.00     0.007 C 
ENDBRANCH  14  23
BRANCH  11  26
ATOM     26  O   UNL     1      -5.508  -3.647   0.000  1.00  0.00    -0.508 OA
ATOM     27  H   UNL     1      -6.389  -2.434   0.000  1.00  0.00     0.293 HD
ENDBRANCH  11  26
TORSDOF 4
