REMARK SMILES CCCc1nc(C)cc2c3c(ccc12)CCN3
REMARK SMILES IDX 3 1 2 2 1 3 4 4 14 5 5 6 13 7 9 8 6 9 12 10 10 11 8 12 11 13
REMARK SMILES IDX 17 14 15 15 16 16 7 17
REMARK H PARENT 17 18
ROOT
ATOM      1  C   UNL     1       2.708   0.143   0.670  1.00  0.00     0.056 C 
ENDROOT
BRANCH   1   2
ATOM      2  C   UNL     1       3.338   0.523  -0.671  1.00  0.00     0.003 C 
ATOM      3  C   UNL     1       4.703   1.165  -0.480  1.00  0.00     0.004 C 
ENDBRANCH   1   2
BRANCH   1   4
ATOM      4  C   UNL     1       1.358  -0.511   0.489  1.00  0.00     0.049 A 
ATOM      5  C   UNL     1       0.166   0.235   0.329  1.00  0.00     0.005 A 
ATOM      6  N   UNL     1       1.397  -1.872   0.468  1.00  0.00    -0.258 NA
ATOM      7  C   UNL     1       0.089   1.659   0.327  1.00  0.00     0.011 A 
ATOM      8  C   UNL     1      -1.026  -0.505   0.153  1.00  0.00     0.009 A 
ATOM      9  C   UNL     1       0.240  -2.546   0.305  1.00  0.00     0.038 A 
ATOM     10  C   UNL     1      -1.120   2.338   0.148  1.00  0.00     0.006 A 
ATOM     11  C   UNL     1      -2.231   0.195  -0.001  1.00  0.00     0.045 A 
ATOM     12  C   UNL     1      -0.978  -1.905   0.147  1.00  0.00     0.034 A 
ATOM     13  C   UNL     1      -2.266   1.589  -0.016  1.00  0.00    -0.022 A 
ATOM     14  N   UNL     1      -3.511  -0.394  -0.265  1.00  0.00    -0.384 N 
ATOM     15  C   UNL     1      -3.646   2.057  -0.309  1.00  0.00     0.059 C 
ATOM     16  C   UNL     1      -4.434   0.753  -0.123  1.00  0.00     0.118 C 
ATOM     17  C   UNL     1       0.310  -4.043   0.304  1.00  0.00     0.067 C 
ATOM     18  H   UNL     1      -3.488  -0.734  -1.227  1.00  0.00     0.160 HD
ENDBRANCH   1   4
TORSDOF 2
