REMARK SMILES Cc1ccc([C@H]2C[C@@H](C)CC[C@H]2c2cnc(-c3ccc(C(F)(F)F)cc3)nc2)cc1
REMARK SMILES IDX 13 1 14 2 15 3 16 4 27 5 28 6 12 7 6 8 7 9 8 10 11 11 10 12
REMARK SMILES IDX 9 13 5 14 2 15 3 16 30 17 4 18 29 19 1 20 17 21 18 22 26 23
REMARK SMILES IDX 19 24 25 25 20 26 21 27 22 28 23 29 24 30
REMARK H PARENT
ROOT
ATOM      1  C   UNL     1      -0.260  -0.479   1.286  1.00  0.00    -0.007 A 
ATOM      2  C   UNL     1       0.499  -1.304   0.484  1.00  0.00     0.119 A 
ATOM      3  N   UNL     1       1.738  -1.008   0.037  1.00  0.00    -0.236 NA
ATOM      4  C   UNL     1       2.248   0.181   0.409  1.00  0.00     0.159 A 
ATOM      5  N   UNL     1       1.598   1.069   1.182  1.00  0.00    -0.236 NA
ATOM      6  C   UNL     1       0.361   0.720   1.592  1.00  0.00     0.119 A 
ENDROOT
BRANCH   1   7
ATOM      7  C   UNL     1      -1.655  -0.780   1.791  1.00  0.00     0.030 C 
ATOM      8  C   UNL     1      -2.787  -0.706   0.727  1.00  0.00     0.027 C 
ATOM      9  C   UNL     1      -2.878  -1.977  -0.136  1.00  0.00     0.012 C 
ATOM     10  C   UNL     1      -3.067  -3.225   0.738  1.00  0.00    -0.014 C 
ATOM     11  C   UNL     1      -1.744  -2.091   2.602  1.00  0.00     0.009 C 
ATOM     12  C   UNL     1      -1.946  -3.361   1.775  1.00  0.00     0.004 C 
ATOM     13  C   UNL     1      -3.150  -4.481  -0.129  1.00  0.00     0.007 C 
BRANCH   8  14
ATOM     14  C   UNL     1      -2.778   0.597  -0.060  1.00  0.00    -0.044 A 
ATOM     15  C   UNL     1      -2.766   3.071  -1.431  1.00  0.00    -0.051 A 
ATOM     16  C   UNL     1      -3.429   2.942  -0.208  1.00  0.00     0.004 A 
ATOM     17  C   UNL     1      -2.091   1.964  -1.954  1.00  0.00     0.004 A 
ATOM     18  C   UNL     1      -3.437   1.719   0.468  1.00  0.00     0.004 A 
ATOM     19  C   UNL     1      -2.101   0.739  -1.279  1.00  0.00     0.004 A 
ATOM     20  C   UNL     1      -2.724   4.392  -2.139  1.00  0.00     0.044 C 
ENDBRANCH   8  14
ENDBRANCH   1   7
BRANCH   4  21
ATOM     21  C   UNL     1       3.603   0.533  -0.063  1.00  0.00     0.019 A 
ATOM     22  C   UNL     1       4.356  -0.349  -0.863  1.00  0.00     0.012 A 
ATOM     23  C   UNL     1       4.201   1.764   0.264  1.00  0.00     0.012 A 
ATOM     24  C   UNL     1       5.641  -0.021  -1.312  1.00  0.00     0.014 A 
ATOM     25  C   UNL     1       5.486   2.099  -0.181  1.00  0.00     0.014 A 
ATOM     26  C   UNL     1       6.222   1.207  -0.971  1.00  0.00     0.056 A 
BRANCH  26  27
ATOM     27  C   UNL     1       7.600   1.582  -1.454  1.00  0.00     0.416 C 
ATOM     28  F   UNL     1       7.573   2.586  -2.374  1.00  0.00    -0.166 F 
ATOM     29  F   UNL     1       8.270   0.553  -2.046  1.00  0.00    -0.166 F 
ATOM     30  F   UNL     1       8.408   2.019  -0.448  1.00  0.00    -0.166 F 
ENDBRANCH  26  27
ENDBRANCH   4  21
TORSDOF 4
