REMARK SMILES C[C@@H](O[C@H]1OCCN(Cc2n[nH]c(=O)[nH]2)[C@H]1c1ccc(F)cc1)c1cc(C(F)(F)F)cc(C(F)(F)F)c1
REMARK SMILES IDX 3 1 2 2 1 3 24 4 25 5 37 6 26 7 32 8 31 9 27 10 28 11 29 12
REMARK SMILES IDX 30 13 33 14 34 15 35 16 36 17 4 18 5 19 16 20 6 21 8 22 7 23
REMARK SMILES IDX 17 24 18 25 23 26 19 27 22 28 20 29 21 30 9 31 10 32 11 33
REMARK SMILES IDX 15 34 12 35 13 36 14 37
REMARK H PARENT 15 38 12 39
ROOT
ATOM      1  O   UNL     1       0.330  -0.928   0.998  1.00  0.00    -0.343 OA
ENDROOT
BRANCH   1   2
ATOM      2  C   UNL     1      -0.408  -1.496   2.086  1.00  0.00     0.148 C 
ATOM      3  C   UNL     1       0.224  -2.850   2.408  1.00  0.00     0.044 C 
BRANCH   2   4
ATOM      4  C   UNL     1      -1.873  -1.637   1.708  1.00  0.00    -0.018 A 
ATOM      5  C   UNL     1      -2.855  -0.959   2.446  1.00  0.00     0.019 A 
ATOM      6  C   UNL     1      -2.274  -2.416   0.612  1.00  0.00     0.019 A 
ATOM      7  C   UNL     1      -4.216  -1.057   2.109  1.00  0.00     0.056 A 
ATOM      8  C   UNL     1      -3.624  -2.513   0.239  1.00  0.00     0.056 A 
ATOM      9  C   UNL     1      -4.587  -1.831   0.998  1.00  0.00     0.026 A 
BRANCH   7  10
ATOM     10  C   UNL     1      -5.255  -0.302   2.905  1.00  0.00     0.416 C 
ATOM     11  F   UNL     1      -5.431   0.968   2.449  1.00  0.00    -0.166 F 
ATOM     12  F   UNL     1      -6.484  -0.889   2.871  1.00  0.00    -0.166 F 
ATOM     13  F   UNL     1      -4.934  -0.187   4.224  1.00  0.00    -0.166 F 
ENDBRANCH   7  10
BRANCH   8  14
ATOM     14  C   UNL     1      -4.014  -3.349  -0.957  1.00  0.00     0.416 C 
ATOM     15  F   UNL     1      -3.254  -3.073  -2.053  1.00  0.00    -0.166 F 
ATOM     16  F   UNL     1      -3.871  -4.683  -0.726  1.00  0.00    -0.166 F 
ATOM     17  F   UNL     1      -5.307  -3.171  -1.345  1.00  0.00    -0.166 F 
ENDBRANCH   8  14
ENDBRANCH   2   4
ENDBRANCH   1   2
BRANCH   1  18
ATOM     18  C   UNL     1       0.250   0.503   0.948  1.00  0.00     0.272 C 
ATOM     19  O   UNL     1       0.827   1.070   2.140  1.00  0.00    -0.349 OA
ATOM     20  C   UNL     1       0.967   1.073  -0.338  1.00  0.00     0.144 C 
ATOM     21  C   UNL     1       2.218   1.392   2.012  1.00  0.00     0.179 C 
ATOM     22  N   UNL     1       2.427   0.730  -0.424  1.00  0.00    -0.282 NA
ATOM     23  C   UNL     1       2.958   0.549   0.959  1.00  0.00     0.114 C 
BRANCH  20  24
ATOM     24  C   UNL     1       0.200   0.950  -1.652  1.00  0.00    -0.025 A 
ATOM     25  C   UNL     1      -0.561  -0.184  -1.979  1.00  0.00     0.008 A 
ATOM     26  C   UNL     1       0.278   1.996  -2.594  1.00  0.00     0.008 A 
ATOM     27  C   UNL     1      -1.246  -0.261  -3.194  1.00  0.00     0.039 A 
ATOM     28  C   UNL     1      -0.406   1.917  -3.808  1.00  0.00     0.039 A 
ATOM     29  C   UNL     1      -1.164   0.791  -4.096  1.00  0.00     0.123 A 
ATOM     30  F   UNL     1      -1.819   0.715  -5.261  1.00  0.00    -0.207 F 
ENDBRANCH  20  24
BRANCH  22  31
ATOM     31  C   UNL     1       2.699  -0.493  -1.217  1.00  0.00     0.162 C 
BRANCH  31  32
ATOM     32  C   UNL     1       4.187  -0.682  -1.380  1.00  0.00     0.145 A 
ATOM     33  N   UNL     1       4.853  -1.755  -1.060  1.00  0.00    -0.157 NA
ATOM     34  N   UNL     1       4.938   0.309  -1.899  1.00  0.00    -0.292 N 
ATOM     35  N   UNL     1       6.148  -1.435  -1.381  1.00  0.00    -0.227 N 
ATOM     36  C   UNL     1       6.224  -0.132  -1.855  1.00  0.00     0.340 A 
ATOM     37  O   UNL     1       7.227   0.496  -2.140  1.00  0.00    -0.246 OA
ATOM     38  H   UNL     1       4.648   1.252  -2.091  1.00  0.00     0.173 HD
ATOM     39  H   UNL     1       6.931  -2.042  -1.181  1.00  0.00     0.195 HD
ENDBRANCH  31  32
ENDBRANCH  22  31
ENDBRANCH   1  18
TORSDOF 8
