REMARK SMILES CC(C)C[C@H]1C(=O)N2CCC[C@H]2[C@]2(O)O[C@](NC(=O)[C@@H]3C=C4c5cccc6[nH]c(Br)c(c56)C[C@H]4N(C)C3)(C(C)C)C(=O)N12
REMARK SMILES IDX 5 1 6 2 7 3 8 4 9 5 10 6 11 7 12 8 13 9 15 10 16 11 41 12
REMARK SMILES IDX 42 13 43 14 4 15 2 16 1 17 3 18 14 19 17 21 18 22 19 23
REMARK SMILES IDX 20 25 21 26 37 27 22 28 35 29 23 30 34 31 24 32 32 33 33 34
REMARK SMILES IDX 25 35 31 36 27 37 26 38 29 39 28 40 36 41 30 42 38 44 39 45
REMARK SMILES IDX 40 46
REMARK H PARENT 14 20 17 24 28 43
ROOT
ATOM      1  C   UNL     1       2.836   1.585   2.178  1.00  0.00     0.180 C 
ATOM      2  C   UNL     1       4.037   1.562   1.174  1.00  0.00     0.246 C 
ATOM      3  O   UNL     1       5.158   1.158   1.468  1.00  0.00    -0.272 OA
ATOM      4  N   UNL     1       3.779   2.139  -0.052  1.00  0.00    -0.330 N 
ATOM      5  C   UNL     1       4.738   2.265  -1.130  1.00  0.00     0.120 C 
ATOM      6  C   UNL     1       4.051   3.194  -2.127  1.00  0.00     0.024 C 
ATOM      7  C   UNL     1       2.562   2.939  -1.886  1.00  0.00     0.035 C 
ATOM      8  C   UNL     1       2.501   2.760  -0.368  1.00  0.00     0.168 C 
ATOM      9  C   UNL     1       1.331   1.917   0.183  1.00  0.00     0.276 C 
ATOM     10  O   UNL     1       0.124   2.652   0.052  1.00  0.00    -0.294 OA
ATOM     11  C   UNL     1      -0.735   2.310   1.179  1.00  0.00     0.228 C 
ATOM     12  C   UNL     1       0.368   2.067   2.237  1.00  0.00     0.281 C 
ATOM     13  O   UNL     1       0.301   2.247   3.442  1.00  0.00    -0.269 OA
ATOM     14  N   UNL     1       1.500   1.637   1.564  1.00  0.00    -0.273 N 
ENDROOT
BRANCH   1  15
ATOM     15  C   UNL     1       2.982   0.515   3.284  1.00  0.00     0.038 C 
BRANCH  15  16
ATOM     16  C   UNL     1       2.667  -0.964   2.965  1.00  0.00    -0.015 C 
ATOM     17  C   UNL     1       1.172  -1.243   2.831  1.00  0.00     0.007 C 
ATOM     18  C   UNL     1       3.421  -1.520   1.759  1.00  0.00     0.007 C 
ENDBRANCH  15  16
ENDBRANCH   1  15
BRANCH   9  19
ATOM     19  O   UNL     1       1.197   0.670  -0.470  1.00  0.00    -0.347 OA
ATOM     20  H   UNL     1       2.070   0.453  -0.837  1.00  0.00     0.216 HD
ENDBRANCH   9  19
BRANCH  11  21
ATOM     21  N   UNL     1      -1.436   1.134   0.712  1.00  0.00    -0.319 N 
ATOM     22  C   UNL     1      -2.225   0.320   1.483  1.00  0.00     0.230 C 
ATOM     23  O   UNL     1      -2.417   0.501   2.680  1.00  0.00    -0.274 OA
ATOM     24  H   UNL     1      -1.066   0.747  -0.148  1.00  0.00     0.166 HD
BRANCH  22  25
ATOM     25  C   UNL     1      -2.855  -0.866   0.739  1.00  0.00     0.115 C 
ATOM     26  C   UNL     1      -1.767  -1.750   0.178  1.00  0.00    -0.007 C 
ATOM     27  C   UNL     1      -3.817  -0.348  -0.350  1.00  0.00     0.102 C 
ATOM     28  C   UNL     1      -1.760  -2.151  -1.108  1.00  0.00    -0.026 C 
ATOM     29  N   UNL     1      -4.182  -1.355  -1.367  1.00  0.00    -0.298 NA
ATOM     30  C   UNL     1      -0.590  -2.859  -1.682  1.00  0.00    -0.011 A 
ATOM     31  C   UNL     1      -2.951  -1.837  -2.066  1.00  0.00     0.091 C 
ATOM     32  C   UNL     1       0.707  -2.959  -1.159  1.00  0.00     0.009 A 
ATOM     33  C   UNL     1      -0.819  -3.451  -2.933  1.00  0.00     0.011 A 
ATOM     34  C   UNL     1      -3.267  -2.951  -3.134  1.00  0.00     0.063 C 
ATOM     35  C   UNL     1       1.719  -3.627  -1.862  1.00  0.00     0.003 A 
ATOM     36  C   UNL     1      -2.011  -3.523  -3.692  1.00  0.00    -0.005 A 
ATOM     37  C   UNL     1       0.190  -4.102  -3.628  1.00  0.00     0.047 A 
ATOM     38  C   UNL     1       1.484  -4.212  -3.115  1.00  0.00     0.027 A 
ATOM     39  C   UNL     1      -1.706  -4.205  -4.842  1.00  0.00     0.086 A 
ATOM     40  N   UNL     1      -0.379  -4.548  -4.802  1.00  0.00    -0.349 N 
ATOM     41  C   UNL     1      -4.988  -2.425  -0.776  1.00  0.00     0.106 C 
ATOM     42  Br  UNL     1      -2.891  -4.644  -6.256  1.00  0.00    -0.031 Br
ATOM     43  H   UNL     1       0.103  -5.067  -5.522  1.00  0.00     0.167 HD
ENDBRANCH  22  25
ENDBRANCH  11  21
BRANCH  11  44
ATOM     44  C   UNL     1      -1.611   3.559   1.450  1.00  0.00     0.046 C 
ATOM     45  C   UNL     1      -2.588   3.439   2.619  1.00  0.00     0.013 C 
ATOM     46  C   UNL     1      -2.385   4.008   0.200  1.00  0.00     0.013 C 
ENDBRANCH  11  44
TORSDOF 6
