REMARK SMILES CCC(=O)N(c1ccccc1)C1CCN(CCc2ccccc2)CC1
REMARK SMILES IDX 12 1 13 2 14 3 15 4 24 5 25 6 5 7 3 8 4 9 2 10 1 11 6 12
REMARK SMILES IDX 7 13 11 14 8 15 10 16 9 17 16 18 17 19 18 20 19 21 23 22
REMARK SMILES IDX 20 23 22 24 21 25
REMARK H PARENT
ROOT
ATOM      1  C   UNL     1      -1.090  -0.745   1.009  1.00  0.00     0.093 C 
ATOM      2  C   UNL     1      -0.311  -0.847  -0.318  1.00  0.00     0.041 C 
ATOM      3  C   UNL     1       0.280   0.495  -0.743  1.00  0.00     0.086 C 
ATOM      4  N   UNL     1       1.154   1.093   0.270  1.00  0.00    -0.303 NA
ATOM      5  C   UNL     1       0.949   0.610   1.636  1.00  0.00     0.086 C 
ATOM      6  C   UNL     1      -0.532   0.373   1.914  1.00  0.00     0.041 C 
ENDROOT
BRANCH   1   7
ATOM      7  N   UNL     1      -2.573  -0.705   0.896  1.00  0.00    -0.309 N 
BRANCH   7   8
ATOM      8  C   UNL     1      -3.300  -1.151   2.011  1.00  0.00     0.226 C 
ATOM      9  O   UNL     1      -2.755  -1.602   3.023  1.00  0.00    -0.275 OA
BRANCH   8  10
ATOM     10  C   UNL     1      -4.820  -1.171   1.917  1.00  0.00     0.097 C 
ATOM     11  C   UNL     1      -5.302  -2.328   1.061  1.00  0.00     0.014 C 
ENDBRANCH   8  10
ENDBRANCH   7   8
BRANCH   7  12
ATOM     12  C   UNL     1      -3.143   0.236  -0.007  1.00  0.00     0.044 A 
ATOM     13  C   UNL     1      -3.521   1.511   0.429  1.00  0.00     0.026 A 
ATOM     14  C   UNL     1      -3.352  -0.126  -1.341  1.00  0.00     0.026 A 
ATOM     15  C   UNL     1      -4.081   2.422  -0.468  1.00  0.00     0.002 A 
ATOM     16  C   UNL     1      -3.915   0.785  -2.236  1.00  0.00     0.002 A 
ATOM     17  C   UNL     1      -4.276   2.060  -1.800  1.00  0.00     0.000 A 
ENDBRANCH   7  12
ENDBRANCH   1   7
BRANCH   4  18
ATOM     18  C   UNL     1       2.567   1.191  -0.118  1.00  0.00     0.089 C 
BRANCH  18  19
ATOM     19  C   UNL     1       3.305  -0.142  -0.334  1.00  0.00     0.051 C 
BRANCH  19  20
ATOM     20  C   UNL     1       4.739   0.079  -0.753  1.00  0.00    -0.047 A 
ATOM     21  C   UNL     1       5.072   0.204  -2.109  1.00  0.00     0.004 A 
ATOM     22  C   UNL     1       5.752   0.191   0.209  1.00  0.00     0.004 A 
ATOM     23  C   UNL     1       6.394   0.426  -2.494  1.00  0.00     0.000 A 
ATOM     24  C   UNL     1       7.074   0.413  -0.179  1.00  0.00     0.000 A 
ATOM     25  C   UNL     1       7.395   0.530  -1.530  1.00  0.00     0.000 A 
ENDBRANCH  19  20
ENDBRANCH  18  19
ENDBRANCH   4  18
TORSDOF 7
