REMARK SMILES CN1CC[C@]23c4c5ccc(O)c4O[C@H]2[C@H](O)C=C[C@H]3[C@H]1C5
REMARK SMILES IDX 1 1 2 2 3 3 4 4 5 5 19 6 20 7 21 8 7 9 6 10 12 11 10 12 9 13
REMARK SMILES IDX 8 14 13 15 14 16 15 17 17 18 18 19 16 20 11 22
REMARK H PARENT 16 21 11 23
ROOT
ATOM      1  C   UNL     1       3.185  -2.291  -0.697  1.00  0.00     0.105 C 
ATOM      2  N   UNL     1       1.915  -1.573  -0.743  1.00  0.00    -0.302 NA
ATOM      3  C   UNL     1       1.775  -0.806  -1.980  1.00  0.00     0.085 C 
ATOM      4  C   UNL     1       0.438  -0.046  -2.065  1.00  0.00     0.032 C 
ATOM      5  C   UNL     1       0.020   0.590  -0.715  1.00  0.00     0.048 C 
ATOM      6  C   UNL     1       1.240   0.686   0.206  1.00  0.00     0.044 C 
ATOM      7  C   UNL     1       1.666  -0.796   0.503  1.00  0.00     0.068 C 
ATOM      8  C   UNL     1       0.571  -1.570   1.309  1.00  0.00     0.055 C 
ATOM      9  C   UNL     1      -0.826  -1.313   0.807  1.00  0.00    -0.039 A 
ATOM     10  C   UNL     1      -1.027  -0.268  -0.076  1.00  0.00     0.012 A 
ATOM     11  C   UNL     1      -2.283   0.179  -0.427  1.00  0.00     0.165 A 
ATOM     12  C   UNL     1      -3.407  -0.485   0.003  1.00  0.00     0.158 A 
ATOM     13  C   UNL     1      -3.249  -1.588   0.842  1.00  0.00     0.050 A 
ATOM     14  C   UNL     1      -1.962  -1.990   1.262  1.00  0.00     0.008 A 
ATOM     15  O   UNL     1      -2.240   1.347  -1.149  1.00  0.00    -0.482 OA
ATOM     16  C   UNL     1      -0.868   1.841  -0.887  1.00  0.00     0.217 C 
ATOM     17  C   UNL     1      -0.910   2.786   0.355  1.00  0.00     0.178 C 
ATOM     18  C   UNL     1       0.056   2.487   1.467  1.00  0.00     0.004 C 
ATOM     19  C   UNL     1       1.012   1.549   1.419  1.00  0.00    -0.022 C 
ENDROOT
BRANCH  17  20
ATOM     20  O   UNL     1      -0.653   4.132  -0.062  1.00  0.00    -0.385 OA
ATOM     21  H   UNL     1       0.308   4.226  -0.168  1.00  0.00     0.211 HD
ENDBRANCH  17  20
BRANCH  12  22
ATOM     22  O   UNL     1      -4.654  -0.066  -0.341  1.00  0.00    -0.504 OA
ATOM     23  H   UNL     1      -4.522   0.713  -0.914  1.00  0.00     0.293 HD
ENDBRANCH  12  22
TORSDOF 2
