REMARK SMILES C=CCN1CC[C@]23c4c5ccc(O)c4O[C@@H]2C(=O)CC[C@]3(O)[C@H]1C5
REMARK SMILES IDX 4 1 5 2 6 3 7 4 16 5 17 6 18 7 19 8 20 9 21 10 23 11 24 12
REMARK SMILES IDX 9 13 8 14 14 15 12 16 11 17 10 18 15 19 3 20 2 21 1 22 22 23
REMARK SMILES IDX 13 25
REMARK H PARENT 22 24 13 26
ROOT
ATOM      1  N   UNL     1      -1.848   0.173   0.171  1.00  0.00    -0.293 NA
ATOM      2  C   UNL     1      -1.162  -0.317   1.379  1.00  0.00     0.086 C 
ATOM      3  C   UNL     1       0.213   0.343   1.583  1.00  0.00     0.035 C 
ATOM      4  C   UNL     1       1.039   0.390   0.268  1.00  0.00     0.075 C 
ATOM      5  C   UNL     1       2.451   0.948   0.399  1.00  0.00     0.253 C 
ATOM      6  C   UNL     1       2.234   2.398   0.839  1.00  0.00     0.174 C 
ATOM      7  O   UNL     1       2.787   2.897   1.815  1.00  0.00    -0.295 OA
ATOM      8  C   UNL     1       1.322   3.219  -0.091  1.00  0.00     0.083 C 
ATOM      9  C   UNL     1       0.008   2.501  -0.503  1.00  0.00     0.046 C 
ATOM     10  C   UNL     1       0.247   1.018  -0.871  1.00  0.00     0.095 C 
ATOM     11  C   UNL     1      -1.001   0.085  -1.046  1.00  0.00     0.094 C 
ATOM     12  C   UNL     1      -0.549  -1.395  -1.452  1.00  0.00     0.058 C 
ATOM     13  C   UNL     1       0.721  -1.890  -0.794  1.00  0.00    -0.038 A 
ATOM     14  C   UNL     1       1.450  -0.987  -0.052  1.00  0.00     0.015 A 
ATOM     15  C   UNL     1       2.696  -1.218   0.500  1.00  0.00     0.166 A 
ATOM     16  C   UNL     1       3.247  -2.467   0.395  1.00  0.00     0.158 A 
ATOM     17  C   UNL     1       2.538  -3.446  -0.315  1.00  0.00     0.050 A 
ATOM     18  C   UNL     1       1.287  -3.156  -0.923  1.00  0.00     0.008 A 
ATOM     19  O   UNL     1       3.220  -0.070   1.075  1.00  0.00    -0.477 OA
ENDROOT
BRANCH   1  20
ATOM     20  C   UNL     1      -3.158  -0.466  -0.014  1.00  0.00     0.111 C 
BRANCH  20  21
ATOM     21  C   UNL     1      -4.196   0.138   0.889  1.00  0.00    -0.019 C 
ATOM     22  C   UNL     1      -5.291   0.784   0.464  1.00  0.00     0.005 C 
ENDBRANCH  20  21
ENDBRANCH   1  20
BRANCH  10  23
ATOM     23  O   UNL     1       1.010   1.044  -2.089  1.00  0.00    -0.387 OA
ATOM     24  H   UNL     1       0.424   1.347  -2.806  1.00  0.00     0.211 HD
ENDBRANCH  10  23
BRANCH  16  25
ATOM     25  O   UNL     1       4.459  -2.761   0.934  1.00  0.00    -0.504 OA
ATOM     26  H   UNL     1       4.766  -1.943   1.369  1.00  0.00     0.293 HD
ENDBRANCH  16  25
TORSDOF 4
