REMARK SMILES CCCN[C@H]1CCc2nc(N)sc2C1
REMARK SMILES IDX 4 1 3 3 2 4 1 5 5 6 6 7 14 8 7 9 13 10 8 11 12 12 9 13 10 14
REMARK SMILES IDX 11 15
REMARK H PARENT 4 2 11 16 11 17
ROOT
ATOM      1  N   UNL     1      -1.675  -0.404  -0.499  1.00  0.00    -0.314 NA
ATOM      2  H   UNL     1      -1.891   0.520  -0.872  1.00  0.00     0.122 HD
ENDROOT
BRANCH   1   3
ATOM      3  C   UNL     1      -2.378  -0.613   0.766  1.00  0.00     0.081 C 
BRANCH   3   4
ATOM      4  C   UNL     1      -3.898  -0.587   0.572  1.00  0.00     0.012 C 
ATOM      5  C   UNL     1      -4.436   0.770   0.140  1.00  0.00     0.005 C 
ENDBRANCH   3   4
ENDBRANCH   1   3
BRANCH   1   6
ATOM      6  C   UNL     1      -0.217  -0.573  -0.386  1.00  0.00     0.059 C 
ATOM      7  C   UNL     1       0.370  -0.592  -1.822  1.00  0.00     0.026 C 
ATOM      8  C   UNL     1       0.462   0.530   0.477  1.00  0.00     0.067 C 
ATOM      9  C   UNL     1       1.879  -0.895  -1.822  1.00  0.00     0.059 C 
ATOM     10  C   UNL     1       1.937   0.522   0.262  1.00  0.00     0.031 A 
ATOM     11  C   UNL     1       2.587  -0.099  -0.783  1.00  0.00     0.057 A 
ATOM     12  S   UNL     1       3.059   1.318   1.260  1.00  0.00    -0.102 S 
ATOM     13  N   UNL     1       3.958   0.041  -0.789  1.00  0.00    -0.225 NA
ATOM     14  C   UNL     1       4.330   0.779   0.230  1.00  0.00     0.180 A 
BRANCH  14  15
ATOM     15  N   UNL     1       5.613   1.086   0.482  1.00  0.00    -0.375 N 
ATOM     16  H   UNL     1       6.285   0.491   0.011  1.00  0.00     0.159 HD
ATOM     17  H   UNL     1       5.854   1.287   1.445  1.00  0.00     0.159 HD
ENDBRANCH  14  15
ENDBRANCH   1   6
TORSDOF 4
