REMARK SMILES C[C@@H](OC[C@@]1(c2ccccc2)CC[C@]2(CCC(=O)N2)CN1)c1cc(C(F)(F)F)cc(C(F)(F)F)c1
REMARK SMILES IDX 1 1 2 2 3 3 4 4 5 5 12 6 21 7 13 8 20 9 14 10 15 11 19 12
REMARK SMILES IDX 16 13 17 14 18 15 6 18 7 19 11 20 8 21 10 22 9 23 22 24
REMARK SMILES IDX 23 25 35 26 24 27 30 28 29 29 25 30 26 31 27 32 28 33 31 34
REMARK SMILES IDX 32 35 33 36 34 37
REMARK H PARENT 21 16 19 17
ROOT
ATOM      1  C   UNL     1      -2.329   0.384   2.607  1.00  0.00     0.044 C 
ATOM      2  C   UNL     1      -2.486   0.086   1.118  1.00  0.00     0.145 C 
ENDROOT
BRANCH   2   3
ATOM      3  O   UNL     1      -1.201  -0.106   0.520  1.00  0.00    -0.372 OA
BRANCH   3   4
ATOM      4  C   UNL     1      -0.601   1.112   0.065  1.00  0.00     0.188 C 
BRANCH   4   5
ATOM      5  C   UNL     1       0.862   0.873  -0.464  1.00  0.00     0.067 C 
ATOM      6  C   UNL     1       0.822  -0.294  -1.512  1.00  0.00     0.032 C 
ATOM      7  N   UNL     1       1.254   2.105  -1.183  1.00  0.00    -0.303 NA
ATOM      8  C   UNL     1       1.726  -0.123  -2.744  1.00  0.00     0.032 C 
ATOM      9  C   UNL     1       2.553   2.072  -1.862  1.00  0.00     0.110 C 
ATOM     10  C   UNL     1       2.981   0.711  -2.464  1.00  0.00     0.053 C 
ATOM     11  C   UNL     1       4.002  -0.055  -1.607  1.00  0.00     0.039 C 
ATOM     12  N   UNL     1       3.735   0.900  -3.689  1.00  0.00    -0.349 N 
ATOM     13  C   UNL     1       4.816  -0.871  -2.614  1.00  0.00     0.102 C 
ATOM     14  C   UNL     1       4.712  -0.053  -3.872  1.00  0.00     0.220 C 
ATOM     15  O   UNL     1       5.347  -0.217  -4.899  1.00  0.00    -0.275 OA
ATOM     16  H   UNL     1       1.170   2.928  -0.592  1.00  0.00     0.123 HD
ATOM     17  H   UNL     1       3.411   1.429  -4.491  1.00  0.00     0.164 HD
BRANCH   5  18
ATOM     18  C   UNL     1       1.731   0.589   0.789  1.00  0.00    -0.026 A 
ATOM     19  C   UNL     1       1.698  -0.674   1.416  1.00  0.00     0.006 A 
ATOM     20  C   UNL     1       2.515   1.581   1.409  1.00  0.00     0.006 A 
ATOM     21  C   UNL     1       2.453  -0.947   2.561  1.00  0.00     0.000 A 
ATOM     22  C   UNL     1       3.272   1.310   2.554  1.00  0.00     0.000 A 
ATOM     23  C   UNL     1       3.247   0.043   3.125  1.00  0.00     0.000 A 
ENDBRANCH   5  18
ENDBRANCH   4   5
ENDBRANCH   3   4
ENDBRANCH   2   3
BRANCH   2  24
ATOM     24  C   UNL     1      -3.293  -1.183   0.908  1.00  0.00    -0.018 A 
ATOM     25  C   UNL     1      -4.651  -1.109   0.560  1.00  0.00     0.019 A 
ATOM     26  C   UNL     1      -2.712  -2.450   1.082  1.00  0.00     0.019 A 
ATOM     27  C   UNL     1      -5.418  -2.270   0.372  1.00  0.00     0.056 A 
ATOM     28  C   UNL     1      -3.454  -3.626   0.900  1.00  0.00     0.056 A 
ATOM     29  C   UNL     1      -4.811  -3.523   0.556  1.00  0.00     0.026 A 
BRANCH  27  30
ATOM     30  C   UNL     1      -6.884  -2.170   0.020  1.00  0.00     0.416 C 
ATOM     31  F   UNL     1      -7.331  -3.228  -0.710  1.00  0.00    -0.166 F 
ATOM     32  F   UNL     1      -7.182  -1.060  -0.711  1.00  0.00    -0.166 F 
ATOM     33  F   UNL     1      -7.676  -2.115   1.126  1.00  0.00    -0.166 F 
ENDBRANCH  27  30
BRANCH  28  34
ATOM     34  C   UNL     1      -2.812  -4.976   1.113  1.00  0.00     0.416 C 
ATOM     35  F   UNL     1      -2.924  -5.403   2.401  1.00  0.00    -0.166 F 
ATOM     36  F   UNL     1      -3.366  -5.955   0.345  1.00  0.00    -0.166 F 
ATOM     37  F   UNL     1      -1.480  -4.989   0.827  1.00  0.00    -0.166 F 
ENDBRANCH  28  34
ENDBRANCH   2  24
TORSDOF 7
