MODEL 1
REMARK VINA RESULT:   -10.116      0.000      0.000
REMARK INTER + INTRA:         -17.163
REMARK INTER:                 -15.143
REMARK INTRA:                  -2.020
REMARK UNBOUND:                -2.020
REMARK  Name = 
REMARK  9 active torsions:
REMARK  status: ('A' for Active; 'I' for Inactive)
REMARK    1  A    between atoms: C_1  and  C_2
REMARK    2  A    between atoms: C_2  and  C_3
REMARK    3  A    between atoms: C_2  and  O_17
REMARK    4  A    between atoms: C_5  and  C_13
REMARK    5  A    between atoms: C_7  and  C_9
REMARK    6  A    between atoms: O_17  and  C_18
REMARK    7  A    between atoms: C_19  and  C_31
REMARK    8  A    between atoms: N_20  and  C_24
REMARK    9  A    between atoms: C_24  and  C_25
REMARK                            x       y       z     vdW  Elec       q    Type
REMARK                         _______ _______ _______ _____ _____    ______ ____
ROOT
ATOM      1  C   UNL     1       8.132   0.608  -9.832  0.00  0.00    +0.000 C 
ATOM      2  C   UNL     1       7.544   1.919 -10.488  0.00  0.00    +0.000 C 
ATOM      3  N   UNL     1       7.902   2.060 -11.933  0.00  0.00    +0.000 NA
ATOM      4  C   UNL     1       9.343   1.823 -12.121  0.00  0.00    +0.000 C 
ATOM      5  C   UNL     1       9.753   0.466 -11.539  0.00  0.00    +0.000 C 
ATOM      6  O   UNL     1       9.529   0.442 -10.129  0.00  0.00    +0.000 OA
ATOM      7  H   UNL     1       7.594  -0.276 -10.201  0.00  0.00    +0.000 HD
ATOM      8  H   UNL     1       7.985   2.758  -9.933  0.00  0.00    +0.000 HD
ATOM      9  H   UNL     1       9.586   1.835 -13.189  0.00  0.00    +0.000 HD
ATOM     10  H   UNL     1       9.931   2.605 -11.624  0.00  0.00    +0.000 HD
ATOM     11  H   UNL     1      10.823   0.304 -11.704  0.00  0.00    +0.000 HD
ATOM     12  H   UNL     1       9.214  -0.360 -12.017  0.00  0.00    +0.000 HD
ENDROOT
BRANCH   2  13
ATOM     13  C   UNL     1       6.026   1.927 -10.283  0.00  0.00    +0.000 A 
ATOM     14  C   UNL     1       5.217   1.054 -11.030  0.00  0.00    +0.000 A 
ATOM     15  C   UNL     1       3.831   1.058 -10.867  0.00  0.00    +0.000 A 
ATOM     16  C   UNL     1       3.252   1.933  -9.957  0.00  0.00    +0.000 A 
ATOM     17  C   UNL     1       4.030   2.805  -9.205  0.00  0.00    +0.000 A 
ATOM     18  C   UNL     1       5.415   2.803  -9.367  0.00  0.00    +0.000 A 
ATOM     19  F   UNL     1       1.921   1.935  -9.799  0.00  0.00    +0.000 F 
ATOM     20  H   UNL     1       5.666   0.366 -11.745  0.00  0.00    +0.000 HD
ATOM     21  H   UNL     1       3.204   0.384 -11.441  0.00  0.00    +0.000 HD
ATOM     22  H   UNL     1       3.553   3.475  -8.498  0.00  0.00    +0.000 HD
ATOM     23  H   UNL     1       6.020   3.480  -8.769  0.00  0.00    +0.000 HD
ENDBRANCH   2  13
BRANCH   3  24
ATOM     24  C   UNL     1       7.448   3.330 -12.545  0.00  0.00    +0.000 C 
ATOM     25  H   UNL     1       6.867   3.884 -11.798  0.00  0.00    +0.000 HD
ATOM     26  H   UNL     1       8.298   3.974 -12.795  0.00  0.00    +0.000 HD
BRANCH  24  27
ATOM     27  C   UNL     1       6.603   3.155 -13.783  0.00  0.00    +0.000 A 
ATOM     28  N   UNL     1       6.936   2.466 -14.838  0.00  0.00    +0.000 NA
ATOM     29  N   UNL     1       5.856   2.602 -15.671  0.00  0.00    +0.000 N 
ATOM     30  C   UNL     1       4.882   3.390 -15.078  0.00  0.00    +0.000 A 
ATOM     31  O   UNL     1       3.802   3.714 -15.535  0.00  0.00    +0.000 OA
ATOM     32  N   UNL     1       5.388   3.736 -13.863  0.00  0.00    +0.000 N 
ATOM     33  H   UNL     1       5.806   2.173 -16.585  0.00  0.00    +0.000 HD
ATOM     34  H   UNL     1       4.909   4.314 -13.195  0.00  0.00    +0.000 HD
ENDBRANCH  24  27
ENDBRANCH   3  24
BRANCH   1  35
ATOM     35  O   UNL     1       7.987   0.706  -8.410  0.00  0.00    +0.000 OA
BRANCH  35  36
ATOM     36  C   UNL     1       8.172  -0.541  -7.739  0.00  0.00    +0.000 C 
ATOM     37  H   UNL     1       9.025  -0.499  -7.048  0.00  0.00    +0.000 HD
BRANCH  36  38
ATOM     38  C   UNL     1       6.926  -0.761  -6.897  0.00  0.00    +0.000 A 
ATOM     39  C   UNL     1       6.805  -1.974  -6.196  0.00  0.00    +0.000 A 
ATOM     40  C   UNL     1       5.688  -2.255  -5.393  0.00  0.00    +0.000 A 
ATOM     41  C   UNL     1       4.680  -1.286  -5.277  0.00  0.00    +0.000 A 
ATOM     42  C   UNL     1       4.780  -0.058  -5.949  0.00  0.00    +0.000 A 
ATOM     43  C   UNL     1       5.904   0.190  -6.757  0.00  0.00    +0.000 A 
ATOM     44  H   UNL     1       7.607  -2.711  -6.272  0.00  0.00    +0.000 HD
ATOM     45  H   UNL     1       3.810  -1.489  -4.650  0.00  0.00    +0.000 HD
ATOM     46  H   UNL     1       5.971   1.150  -7.268  0.00  0.00    +0.000 HD
BRANCH  42  47
ATOM     47  C   UNL     1       3.686   0.979  -5.837  0.00  0.00    +0.000 C 
ATOM     48  F   UNL     1       3.032   0.933  -4.643  0.00  0.00    +0.000 F 
ATOM     49  F   UNL     1       4.167   2.247  -5.951  0.00  0.00    +0.000 F 
ATOM     50  F   UNL     1       2.724   0.855  -6.793  0.00  0.00    +0.000 F 
ENDBRANCH  42  47
BRANCH  40  51
ATOM     51  C   UNL     1       5.598  -3.559  -4.638  0.00  0.00    +0.000 C 
ATOM     52  F   UNL     1       5.295  -4.609  -5.449  0.00  0.00    +0.000 F 
ATOM     53  F   UNL     1       6.764  -3.892  -4.015  0.00  0.00    +0.000 F 
ATOM     54  F   UNL     1       4.649  -3.550  -3.661  0.00  0.00    +0.000 F 
ENDBRANCH  40  51
ENDBRANCH  36  38
BRANCH  36  55
ATOM     55  C   UNL     1       8.468  -1.618  -8.783  0.00  0.00    +0.000 C 
ATOM     56  H   UNL     1       9.531  -1.881  -8.798  0.00  0.00    +0.000 HD
ATOM     57  H   UNL     1       8.191  -1.269  -9.784  0.00  0.00    +0.000 HD
ATOM     58  H   UNL     1       7.879  -2.524  -8.603  0.00  0.00    +0.000 HD
ENDBRANCH  36  55
ENDBRANCH  35  36
ENDBRANCH   1  35
TORSDOF 9
ENDMDL
MODEL 2
REMARK VINA RESULT:    -9.979      0.120      2.901
REMARK INTER + INTRA:         -16.958
REMARK INTER:                 -15.073
REMARK INTRA:                  -1.885
REMARK UNBOUND:                -2.020
REMARK  Name = 
REMARK  9 active torsions:
REMARK  status: ('A' for Active; 'I' for Inactive)
REMARK    1  A    between atoms: C_1  and  C_2
REMARK    2  A    between atoms: C_2  and  C_3
REMARK    3  A    between atoms: C_2  and  O_17
REMARK    4  A    between atoms: C_5  and  C_13
REMARK    5  A    between atoms: C_7  and  C_9
REMARK    6  A    between atoms: O_17  and  C_18
REMARK    7  A    between atoms: C_19  and  C_31
REMARK    8  A    between atoms: N_20  and  C_24
REMARK    9  A    between atoms: C_24  and  C_25
REMARK                            x       y       z     vdW  Elec       q    Type
REMARK                         _______ _______ _______ _____ _____    ______ ____
ROOT
ATOM      1  C   UNL     1       8.122   0.617  -9.893  0.00  0.00    +0.000 C 
ATOM      2  C   UNL     1       7.553   1.940 -10.543  0.00  0.00    +0.000 C 
ATOM      3  N   UNL     1       7.946   2.101 -11.977  0.00  0.00    +0.000 NA
ATOM      4  C   UNL     1       9.390   1.864 -12.135  0.00  0.00    +0.000 C 
ATOM      5  C   UNL     1       9.782   0.497 -11.563  0.00  0.00    +0.000 C 
ATOM      6  O   UNL     1       9.526   0.452 -10.159  0.00  0.00    +0.000 OA
ATOM      7  H   UNL     1       7.591  -0.259 -10.288  0.00  0.00    +0.000 HD
ATOM      8  H   UNL     1       7.983   2.769  -9.966  0.00  0.00    +0.000 HD
ATOM      9  H   UNL     1       9.658   1.891 -13.197  0.00  0.00    +0.000 HD
ATOM     10  H   UNL     1       9.968   2.636 -11.613  0.00  0.00    +0.000 HD
ATOM     11  H   UNL     1      10.856   0.335 -11.706  0.00  0.00    +0.000 HD
ATOM     12  H   UNL     1       9.253  -0.321 -12.066  0.00  0.00    +0.000 HD
ENDROOT
BRANCH   2  13
ATOM     13  C   UNL     1       6.031   1.949 -10.374  0.00  0.00    +0.000 A 
ATOM     14  C   UNL     1       5.241   1.053 -11.115  0.00  0.00    +0.000 A 
ATOM     15  C   UNL     1       3.852   1.056 -10.984  0.00  0.00    +0.000 A 
ATOM     16  C   UNL     1       3.249   1.955 -10.112  0.00  0.00    +0.000 A 
ATOM     17  C   UNL     1       4.007   2.850  -9.368  0.00  0.00    +0.000 A 
ATOM     18  C   UNL     1       5.396   2.848  -9.498  0.00  0.00    +0.000 A 
ATOM     19  F   UNL     1       1.915   1.957  -9.986  0.00  0.00    +0.000 F 
ATOM     20  H   UNL     1       5.709   0.346 -11.799  0.00  0.00    +0.000 HD
ATOM     21  H   UNL     1       3.240   0.365 -11.553  0.00  0.00    +0.000 HD
ATOM     22  H   UNL     1       3.513   3.538  -8.691  0.00  0.00    +0.000 HD
ATOM     23  H   UNL     1       5.986   3.544  -8.904  0.00  0.00    +0.000 HD
ENDBRANCH   2  13
BRANCH   3  24
ATOM     24  C   UNL     1       7.509   3.381 -12.581  0.00  0.00    +0.000 C 
ATOM     25  H   UNL     1       6.968   3.956 -11.819  0.00  0.00    +0.000 HD
ATOM     26  H   UNL     1       8.368   3.999 -12.861  0.00  0.00    +0.000 HD
BRANCH  24  27
ATOM     27  C   UNL     1       6.619   3.226 -13.790  0.00  0.00    +0.000 A 
ATOM     28  N   UNL     1       6.907   2.541 -14.860  0.00  0.00    +0.000 NA
ATOM     29  N   UNL     1       5.801   2.696 -15.654  0.00  0.00    +0.000 N 
ATOM     30  C   UNL     1       4.858   3.491 -15.023  0.00  0.00    +0.000 A 
ATOM     31  O   UNL     1       3.767   3.831 -15.440  0.00  0.00    +0.000 OA
ATOM     32  N   UNL     1       5.409   3.821 -13.823  0.00  0.00    +0.000 N 
ATOM     33  H   UNL     1       5.714   2.275 -16.570  0.00  0.00    +0.000 HD
ATOM     34  H   UNL     1       4.961   4.400 -13.136  0.00  0.00    +0.000 HD
ENDBRANCH  24  27
ENDBRANCH   3  24
BRANCH   1  35
ATOM     35  O   UNL     1       7.944   0.695  -8.474  0.00  0.00    +0.000 OA
BRANCH  35  36
ATOM     36  C   UNL     1       8.230  -0.533  -7.804  0.00  0.00    +0.000 C 
ATOM     37  H   UNL     1       9.098  -0.432  -7.138  0.00  0.00    +0.000 HD
BRANCH  36  38
ATOM     38  C   UNL     1       7.026  -0.830  -6.925  0.00  0.00    +0.000 A 
ATOM     39  C   UNL     1       6.021   0.149  -6.824  0.00  0.00    +0.000 A 
ATOM     40  C   UNL     1       4.875  -0.047  -6.037  0.00  0.00    +0.000 A 
ATOM     41  C   UNL     1       4.727  -1.262  -5.353  0.00  0.00    +0.000 A 
ATOM     42  C   UNL     1       5.703  -2.267  -5.447  0.00  0.00    +0.000 A 
ATOM     43  C   UNL     1       6.847  -2.037  -6.232  0.00  0.00    +0.000 A 
ATOM     44  H   UNL     1       6.133   1.081  -7.382  0.00  0.00    +0.000 HD
ATOM     45  H   UNL     1       3.838  -1.430  -4.744  0.00  0.00    +0.000 HD
ATOM     46  H   UNL     1       7.594  -2.827  -6.302  0.00  0.00    +0.000 HD
BRANCH  42  47
ATOM     47  C   UNL     1       5.551  -3.569  -4.697  0.00  0.00    +0.000 C 
ATOM     48  F   UNL     1       5.266  -4.622  -5.514  0.00  0.00    +0.000 F 
ATOM     49  F   UNL     1       6.685  -3.912  -4.026  0.00  0.00    +0.000 F 
ATOM     50  F   UNL     1       4.558  -3.543  -3.765  0.00  0.00    +0.000 F 
ENDBRANCH  42  47
BRANCH  40  51
ATOM     51  C   UNL     1       3.806   1.016  -5.966  0.00  0.00    +0.000 C 
ATOM     52  F   UNL     1       4.315   2.273  -6.084  0.00  0.00    +0.000 F 
ATOM     53  F   UNL     1       2.873   0.897  -6.952  0.00  0.00    +0.000 F 
ATOM     54  F   UNL     1       3.109   0.999  -4.795  0.00  0.00    +0.000 F 
ENDBRANCH  40  51
ENDBRANCH  36  38
BRANCH  36  55
ATOM     55  C   UNL     1       8.566  -1.594  -8.852  0.00  0.00    +0.000 C 
ATOM     56  H   UNL     1       8.768  -1.144  -9.829  0.00  0.00    +0.000 HD
ATOM     57  H   UNL     1       7.733  -2.297  -8.968  0.00  0.00    +0.000 HD
ATOM     58  H   UNL     1       9.431  -2.196  -8.551  0.00  0.00    +0.000 HD
ENDBRANCH  36  55
ENDBRANCH  35  36
ENDBRANCH   1  35
TORSDOF 9
ENDMDL
MODEL 3
REMARK VINA RESULT:    -8.681      1.564      2.140
REMARK INTER + INTRA:         -15.014
REMARK INTER:                 -13.921
REMARK INTRA:                  -1.094
REMARK UNBOUND:                -2.020
REMARK  Name = 
REMARK  9 active torsions:
REMARK  status: ('A' for Active; 'I' for Inactive)
REMARK    1  A    between atoms: C_1  and  C_2
REMARK    2  A    between atoms: C_2  and  C_3
REMARK    3  A    between atoms: C_2  and  O_17
REMARK    4  A    between atoms: C_5  and  C_13
REMARK    5  A    between atoms: C_7  and  C_9
REMARK    6  A    between atoms: O_17  and  C_18
REMARK    7  A    between atoms: C_19  and  C_31
REMARK    8  A    between atoms: N_20  and  C_24
REMARK    9  A    between atoms: C_24  and  C_25
REMARK                            x       y       z     vdW  Elec       q    Type
REMARK                         _______ _______ _______ _____ _____    ______ ____
ROOT
ATOM      1  C   UNL     1       8.017   0.131 -10.019  0.00  0.00    +0.000 C 
ATOM      2  C   UNL     1       7.537   1.322 -10.940  0.00  0.00    +0.000 C 
ATOM      3  N   UNL     1       7.630   1.007 -12.398  0.00  0.00    +0.000 NA
ATOM      4  C   UNL     1       8.950   0.432 -12.706  0.00  0.00    +0.000 C 
ATOM      5  C   UNL     1       9.236  -0.784 -11.818  0.00  0.00    +0.000 C 
ATOM      6  O   UNL     1       9.285  -0.396 -10.445  0.00  0.00    +0.000 OA
ATOM      7  H   UNL     1       7.281  -0.684 -10.038  0.00  0.00    +0.000 HD
ATOM      8  H   UNL     1       8.207   2.163 -10.718  0.00  0.00    +0.000 HD
ATOM      9  H   UNL     1       8.983   0.116 -13.755  0.00  0.00    +0.000 HD
ATOM     10  H   UNL     1       9.742   1.173 -12.544  0.00  0.00    +0.000 HD
ATOM     11  H   UNL     1      10.214  -1.205 -12.076  0.00  0.00    +0.000 HD
ATOM     12  H   UNL     1       8.487  -1.573 -11.957  0.00  0.00    +0.000 HD
ENDROOT
BRANCH   2  13
ATOM     13  C   UNL     1       6.109   1.702 -10.538  0.00  0.00    +0.000 A 
ATOM     14  C   UNL     1       5.831   3.009 -10.100  0.00  0.00    +0.000 A 
ATOM     15  C   UNL     1       4.539   3.369  -9.717  0.00  0.00    +0.000 A 
ATOM     16  C   UNL     1       3.521   2.424  -9.770  0.00  0.00    +0.000 A 
ATOM     17  C   UNL     1       3.769   1.127 -10.200  0.00  0.00    +0.000 A 
ATOM     18  C   UNL     1       5.061   0.765 -10.584  0.00  0.00    +0.000 A 
ATOM     19  F   UNL     1       2.280   2.770  -9.404  0.00  0.00    +0.000 F 
ATOM     20  H   UNL     1       6.625   3.753 -10.056  0.00  0.00    +0.000 HD
ATOM     21  H   UNL     1       4.321   4.376  -9.380  0.00  0.00    +0.000 HD
ATOM     22  H   UNL     1       2.956   0.410 -10.238  0.00  0.00    +0.000 HD
ATOM     23  H   UNL     1       5.247  -0.249 -10.930  0.00  0.00    +0.000 HD
ENDBRANCH   2  13
BRANCH   3  24
ATOM     24  C   UNL     1       7.282   2.142 -13.283  0.00  0.00    +0.000 C 
ATOM     25  H   UNL     1       7.373   1.808 -14.324  0.00  0.00    +0.000 HD
ATOM     26  H   UNL     1       6.234   2.434 -13.157  0.00  0.00    +0.000 HD
BRANCH  24  27
ATOM     27  C   UNL     1       8.144   3.366 -13.092  0.00  0.00    +0.000 A 
ATOM     28  N   UNL     1       9.401   3.362 -12.747  0.00  0.00    +0.000 NA
ATOM     29  N   UNL     1       9.733   4.691 -12.711  0.00  0.00    +0.000 N 
ATOM     30  C   UNL     1       8.639   5.475 -13.042  0.00  0.00    +0.000 A 
ATOM     31  O   UNL     1       8.580   6.688 -13.107  0.00  0.00    +0.000 OA
ATOM     32  N   UNL     1       7.626   4.597 -13.282  0.00  0.00    +0.000 N 
ATOM     33  H   UNL     1      10.659   5.023 -12.474  0.00  0.00    +0.000 HD
ATOM     34  H   UNL     1       6.695   4.867 -13.542  0.00  0.00    +0.000 HD
ENDBRANCH  24  27
ENDBRANCH   3  24
BRANCH   1  35
ATOM     35  O   UNL     1       8.164   0.621  -8.681  0.00  0.00    +0.000 OA
BRANCH  35  36
ATOM     36  C   UNL     1       8.403  -0.414  -7.727  0.00  0.00    +0.000 C 
ATOM     37  H   UNL     1       9.133  -0.098  -6.970  0.00  0.00    +0.000 HD
BRANCH  36  38
ATOM     38  C   UNL     1       7.084  -0.643  -7.007  0.00  0.00    +0.000 A 
ATOM     39  C   UNL     1       6.903  -1.858  -6.324  0.00  0.00    +0.000 A 
ATOM     40  C   UNL     1       5.716  -2.147  -5.631  0.00  0.00    +0.000 A 
ATOM     41  C   UNL     1       4.698  -1.184  -5.608  0.00  0.00    +0.000 A 
ATOM     42  C   UNL     1       4.854   0.047  -6.264  0.00  0.00    +0.000 A 
ATOM     43  C   UNL     1       6.048   0.303  -6.961  0.00  0.00    +0.000 A 
ATOM     44  H   UNL     1       7.713  -2.592  -6.326  0.00  0.00    +0.000 HD
ATOM     45  H   UNL     1       3.774  -1.393  -5.067  0.00  0.00    +0.000 HD
ATOM     46  H   UNL     1       6.159   1.265  -7.461  0.00  0.00    +0.000 HD
BRANCH  42  47
ATOM     47  C   UNL     1       3.750   1.078  -6.252  0.00  0.00    +0.000 C 
ATOM     48  F   UNL     1       2.693   0.734  -7.039  0.00  0.00    +0.000 F 
ATOM     49  F   UNL     1       3.240   1.271  -5.004  0.00  0.00    +0.000 F 
ATOM     50  F   UNL     1       4.152   2.306  -6.685  0.00  0.00    +0.000 F 
ENDBRANCH  42  47
BRANCH  40  51
ATOM     51  C   UNL     1       5.562  -3.454  -4.892  0.00  0.00    +0.000 C 
ATOM     52  F   UNL     1       4.556  -3.418  -3.976  0.00  0.00    +0.000 F 
ATOM     53  F   UNL     1       5.278  -4.501  -5.718  0.00  0.00    +0.000 F 
ATOM     54  F   UNL     1       6.683  -3.820  -4.208  0.00  0.00    +0.000 F 
ENDBRANCH  40  51
ENDBRANCH  36  38
BRANCH  36  55
ATOM     55  C   UNL     1       8.981  -1.627  -8.456  0.00  0.00    +0.000 C 
ATOM     56  H   UNL     1       8.427  -1.846  -9.374  0.00  0.00    +0.000 HD
ATOM     57  H   UNL     1       8.942  -2.515  -7.816  0.00  0.00    +0.000 HD
ATOM     58  H   UNL     1      10.038  -1.479  -8.705  0.00  0.00    +0.000 HD
ENDBRANCH  36  55
ENDBRANCH  35  36
ENDBRANCH   1  35
TORSDOF 9
ENDMDL
MODEL 4
REMARK VINA RESULT:    -8.442      1.559      3.501
REMARK INTER + INTRA:         -14.658
REMARK INTER:                 -13.882
REMARK INTRA:                  -0.775
REMARK UNBOUND:                -2.020
REMARK  Name = 
REMARK  9 active torsions:
REMARK  status: ('A' for Active; 'I' for Inactive)
REMARK    1  A    between atoms: C_1  and  C_2
REMARK    2  A    between atoms: C_2  and  C_3
REMARK    3  A    between atoms: C_2  and  O_17
REMARK    4  A    between atoms: C_5  and  C_13
REMARK    5  A    between atoms: C_7  and  C_9
REMARK    6  A    between atoms: O_17  and  C_18
REMARK    7  A    between atoms: C_19  and  C_31
REMARK    8  A    between atoms: N_20  and  C_24
REMARK    9  A    between atoms: C_24  and  C_25
REMARK                            x       y       z     vdW  Elec       q    Type
REMARK                         _______ _______ _______ _____ _____    ______ ____
ROOT
ATOM      1  C   UNL     1       7.894   0.159 -10.012  0.00  0.00    +0.000 C 
ATOM      2  C   UNL     1       7.410   1.370 -10.904  0.00  0.00    +0.000 C 
ATOM      3  N   UNL     1       7.533   1.101 -12.370  0.00  0.00    +0.000 NA
ATOM      4  C   UNL     1       8.867   0.556 -12.672  0.00  0.00    +0.000 C 
ATOM      5  C   UNL     1       9.158  -0.681 -11.816  0.00  0.00    +0.000 C 
ATOM      6  O   UNL     1       9.177  -0.335 -10.431  0.00  0.00    +0.000 OA
ATOM      7  H   UNL     1       7.172  -0.667 -10.069  0.00  0.00    +0.000 HD
ATOM      8  H   UNL     1       8.063   2.214 -10.646  0.00  0.00    +0.000 HD
ATOM      9  H   UNL     1       8.923   0.273 -13.729  0.00  0.00    +0.000 HD
ATOM     10  H   UNL     1       9.644   1.305 -12.474  0.00  0.00    +0.000 HD
ATOM     11  H   UNL     1      10.146  -1.078 -12.070  0.00  0.00    +0.000 HD
ATOM     12  H   UNL     1       8.425  -1.478 -11.992  0.00  0.00    +0.000 HD
ENDROOT
BRANCH   2  13
ATOM     13  C   UNL     1       5.969   1.715 -10.516  0.00  0.00    +0.000 A 
ATOM     14  C   UNL     1       5.674   2.982  -9.984  0.00  0.00    +0.000 A 
ATOM     15  C   UNL     1       4.369   3.308  -9.611  0.00  0.00    +0.000 A 
ATOM     16  C   UNL     1       3.357   2.369  -9.770  0.00  0.00    +0.000 A 
ATOM     17  C   UNL     1       3.623   1.111 -10.296  0.00  0.00    +0.000 A 
ATOM     18  C   UNL     1       4.926   0.783 -10.668  0.00  0.00    +0.000 A 
ATOM     19  F   UNL     1       2.104   2.684  -9.414  0.00  0.00    +0.000 F 
ATOM     20  H   UNL     1       6.463   3.721  -9.857  0.00  0.00    +0.000 HD
ATOM     21  H   UNL     1       4.138   4.285  -9.201  0.00  0.00    +0.000 HD
ATOM     22  H   UNL     1       2.814   0.398 -10.414  0.00  0.00    +0.000 HD
ATOM     23  H   UNL     1       5.126  -0.200 -11.089  0.00  0.00    +0.000 HD
ENDBRANCH   2  13
BRANCH   3  24
ATOM     24  C   UNL     1       7.181   2.256 -13.226  0.00  0.00    +0.000 C 
ATOM     25  H   UNL     1       7.215   1.933 -14.274  0.00  0.00    +0.000 HD
ATOM     26  H   UNL     1       6.150   2.579 -13.050  0.00  0.00    +0.000 HD
BRANCH  24  27
ATOM     27  C   UNL     1       8.088   3.451 -13.060  0.00  0.00    +0.000 A 
ATOM     28  N   UNL     1       9.359   3.404 -12.773  0.00  0.00    +0.000 NA
ATOM     29  N   UNL     1       9.733   4.722 -12.737  0.00  0.00    +0.000 N 
ATOM     30  C   UNL     1       8.650   5.543 -13.010  0.00  0.00    +0.000 A 
ATOM     31  O   UNL     1       8.626   6.758 -13.058  0.00  0.00    +0.000 OA
ATOM     32  N   UNL     1       7.601   4.700 -13.212  0.00  0.00    +0.000 N 
ATOM     33  H   UNL     1      10.678   5.023 -12.540  0.00  0.00    +0.000 HD
ATOM     34  H   UNL     1       6.667   5.001 -13.427  0.00  0.00    +0.000 HD
ENDBRANCH  24  27
ENDBRANCH   3  24
BRANCH   1  35
ATOM     35  O   UNL     1       8.010   0.610  -8.657  0.00  0.00    +0.000 OA
BRANCH  35  36
ATOM     36  C   UNL     1       8.355  -0.433  -7.745  0.00  0.00    +0.000 C 
ATOM     37  H   UNL     1       9.121  -0.102  -7.032  0.00  0.00    +0.000 HD
BRANCH  36  38
ATOM     38  C   UNL     1       7.099  -0.732  -6.945  0.00  0.00    +0.000 A 
ATOM     39  C   UNL     1       6.087   0.245  -6.907  0.00  0.00    +0.000 A 
ATOM     40  C   UNL     1       4.895   0.047  -6.194  0.00  0.00    +0.000 A 
ATOM     41  C   UNL     1       4.705  -1.168  -5.520  0.00  0.00    +0.000 A 
ATOM     42  C   UNL     1       5.687  -2.171  -5.553  0.00  0.00    +0.000 A 
ATOM     43  C   UNL     1       6.878  -1.939  -6.265  0.00  0.00    +0.000 A 
ATOM     44  H   UNL     1       6.233   1.178  -7.457  0.00  0.00    +0.000 HD
ATOM     45  H   UNL     1       3.780  -1.338  -4.969  0.00  0.00    +0.000 HD
ATOM     46  H   UNL     1       7.629  -2.728  -6.287  0.00  0.00    +0.000 HD
BRANCH  42  47
ATOM     47  C   UNL     1       5.490  -3.474  -4.814  0.00  0.00    +0.000 C 
ATOM     48  F   UNL     1       5.197  -4.515  -5.643  0.00  0.00    +0.000 F 
ATOM     49  F   UNL     1       6.602  -3.847  -4.124  0.00  0.00    +0.000 F 
ATOM     50  F   UNL     1       4.480  -3.430  -3.901  0.00  0.00    +0.000 F 
ENDBRANCH  42  47
BRANCH  40  51
ATOM     51  C   UNL     1       3.822   1.108  -6.191  0.00  0.00    +0.000 C 
ATOM     52  F   UNL     1       4.293   2.325  -6.578  0.00  0.00    +0.000 F 
ATOM     53  F   UNL     1       2.789   0.822  -7.033  0.00  0.00    +0.000 F 
ATOM     54  F   UNL     1       3.255   1.296  -4.966  0.00  0.00    +0.000 F 
ENDBRANCH  40  51
ENDBRANCH  36  38
BRANCH  36  55
ATOM     55  C   UNL     1       8.932  -1.605  -8.540  0.00  0.00    +0.000 C 
ATOM     56  H   UNL     1       8.293  -1.868  -9.389  0.00  0.00    +0.000 HD
ATOM     57  H   UNL     1       9.029  -2.491  -7.902  0.00  0.00    +0.000 HD
ATOM     58  H   UNL     1       9.940  -1.384  -8.907  0.00  0.00    +0.000 HD
ENDBRANCH  36  55
ENDBRANCH  35  36
ENDBRANCH   1  35
TORSDOF 9
ENDMDL
MODEL 5
REMARK VINA RESULT:    -8.314      2.893      4.458
REMARK INTER + INTRA:         -14.466
REMARK INTER:                 -11.173
REMARK INTRA:                  -3.292
REMARK UNBOUND:                -2.020
REMARK  Name = 
REMARK  9 active torsions:
REMARK  status: ('A' for Active; 'I' for Inactive)
REMARK    1  A    between atoms: C_1  and  C_2
REMARK    2  A    between atoms: C_2  and  C_3
REMARK    3  A    between atoms: C_2  and  O_17
REMARK    4  A    between atoms: C_5  and  C_13
REMARK    5  A    between atoms: C_7  and  C_9
REMARK    6  A    between atoms: O_17  and  C_18
REMARK    7  A    between atoms: C_19  and  C_31
REMARK    8  A    between atoms: N_20  and  C_24
REMARK    9  A    between atoms: C_24  and  C_25
REMARK                            x       y       z     vdW  Elec       q    Type
REMARK                         _______ _______ _______ _____ _____    ______ ____
ROOT
ATOM      1  C   UNL     1       4.582   1.677  -8.269  0.00  0.00    +0.000 C 
ATOM      2  C   UNL     1       5.201   0.956  -9.531  0.00  0.00    +0.000 C 
ATOM      3  N   UNL     1       5.506   1.899 -10.651  0.00  0.00    +0.000 NA
ATOM      4  C   UNL     1       4.350   2.777 -10.899  0.00  0.00    +0.000 C 
ATOM      5  C   UNL     1       3.928   3.499  -9.615  0.00  0.00    +0.000 C 
ATOM      6  O   UNL     1       3.503   2.556  -8.630  0.00  0.00    +0.000 OA
ATOM      7  H   UNL     1       5.351   2.269  -7.754  0.00  0.00    +0.000 HD
ATOM      8  H   UNL     1       4.442   0.240  -9.871  0.00  0.00    +0.000 HD
ATOM      9  H   UNL     1       4.608   3.527 -11.655  0.00  0.00    +0.000 HD
ATOM     10  H   UNL     1       3.496   2.196 -11.266  0.00  0.00    +0.000 HD
ATOM     11  H   UNL     1       3.079   4.157  -9.826  0.00  0.00    +0.000 HD
ATOM     12  H   UNL     1       4.738   4.119  -9.212  0.00  0.00    +0.000 HD
ENDROOT
BRANCH   2  13
ATOM     13  C   UNL     1       6.451   0.189  -9.089  0.00  0.00    +0.000 A 
ATOM     14  C   UNL     1       6.368  -1.191  -8.831  0.00  0.00    +0.000 A 
ATOM     15  C   UNL     1       7.492  -1.903  -8.413  0.00  0.00    +0.000 A 
ATOM     16  C   UNL     1       8.702  -1.239  -8.252  0.00  0.00    +0.000 A 
ATOM     17  C   UNL     1       8.811   0.123  -8.502  0.00  0.00    +0.000 A 
ATOM     18  C   UNL     1       7.688   0.837  -8.919  0.00  0.00    +0.000 A 
ATOM     19  F   UNL     1       9.782  -1.924  -7.853  0.00  0.00    +0.000 F 
ATOM     20  H   UNL     1       5.422  -1.716  -8.955  0.00  0.00    +0.000 HD
ATOM     21  H   UNL     1       7.432  -2.968  -8.215  0.00  0.00    +0.000 HD
ATOM     22  H   UNL     1       9.768   0.617  -8.374  0.00  0.00    +0.000 HD
ATOM     23  H   UNL     1       7.781   1.902  -9.123  0.00  0.00    +0.000 HD
ENDBRANCH   2  13
BRANCH   3  24
ATOM     24  C   UNL     1       5.993   1.236 -11.881  0.00  0.00    +0.000 C 
ATOM     25  H   UNL     1       6.464   0.287 -11.599  0.00  0.00    +0.000 HD
ATOM     26  H   UNL     1       5.161   0.968 -12.541  0.00  0.00    +0.000 HD
BRANCH  24  27
ATOM     27  C   UNL     1       6.986   2.050 -12.674  0.00  0.00    +0.000 A 
ATOM     28  N   UNL     1       7.160   1.987 -13.964  0.00  0.00    +0.000 NA
ATOM     29  N   UNL     1       8.149   2.905 -14.205  0.00  0.00    +0.000 N 
ATOM     30  C   UNL     1       8.550   3.508 -13.023  0.00  0.00    +0.000 A 
ATOM     31  O   UNL     1       9.403   4.363 -12.871  0.00  0.00    +0.000 OA
ATOM     32  N   UNL     1       7.787   2.939 -12.050  0.00  0.00    +0.000 N 
ATOM     33  H   UNL     1       8.513   3.097 -15.129  0.00  0.00    +0.000 HD
ATOM     34  H   UNL     1       7.851   3.169 -11.075  0.00  0.00    +0.000 HD
ENDBRANCH  24  27
ENDBRANCH   3  24
BRANCH   1  35
ATOM     35  O   UNL     1       4.065   0.677  -7.382  0.00  0.00    +0.000 OA
BRANCH  35  36
ATOM     36  C   UNL     1       4.505   0.839  -6.034  0.00  0.00    +0.000 C 
ATOM     37  H   UNL     1       3.655   0.902  -5.342  0.00  0.00    +0.000 HD
BRANCH  36  38
ATOM     38  C   UNL     1       5.276  -0.422  -5.682  0.00  0.00    +0.000 A 
ATOM     39  C   UNL     1       4.686  -1.664  -5.977  0.00  0.00    +0.000 A 
ATOM     40  C   UNL     1       5.332  -2.877  -5.688  0.00  0.00    +0.000 A 
ATOM     41  C   UNL     1       6.608  -2.839  -5.108  0.00  0.00    +0.000 A 
ATOM     42  C   UNL     1       7.233  -1.616  -4.818  0.00  0.00    +0.000 A 
ATOM     43  C   UNL     1       6.555  -0.417  -5.106  0.00  0.00    +0.000 A 
ATOM     44  H   UNL     1       3.703  -1.683  -6.453  0.00  0.00    +0.000 HD
ATOM     45  H   UNL     1       7.125  -3.774  -4.886  0.00  0.00    +0.000 HD
ATOM     46  H   UNL     1       7.054   0.525  -4.882  0.00  0.00    +0.000 HD
BRANCH  42  47
ATOM     47  C   UNL     1       8.601  -1.576  -4.179  0.00  0.00    +0.000 C 
ATOM     48  F   UNL     1       9.599  -1.342  -5.076  0.00  0.00    +0.000 F 
ATOM     49  F   UNL     1       8.702  -0.593  -3.242  0.00  0.00    +0.000 F 
ATOM     50  F   UNL     1       8.935  -2.734  -3.544  0.00  0.00    +0.000 F 
ENDBRANCH  42  47
BRANCH  40  51
ATOM     51  C   UNL     1       4.679  -4.192  -6.036  0.00  0.00    +0.000 C 
ATOM     52  F   UNL     1       4.902  -4.558  -7.328  0.00  0.00    +0.000 F 
ATOM     53  F   UNL     1       5.129  -5.227  -5.272  0.00  0.00    +0.000 F 
ATOM     54  F   UNL     1       3.325  -4.179  -5.876  0.00  0.00    +0.000 F 
ENDBRANCH  40  51
ENDBRANCH  36  38
BRANCH  36  55
ATOM     55  C   UNL     1       5.289   2.148  -5.930  0.00  0.00    +0.000 C 
ATOM     56  H   UNL     1       5.005   2.850  -6.721  0.00  0.00    +0.000 HD
ATOM     57  H   UNL     1       6.365   1.959  -6.014  0.00  0.00    +0.000 HD
ATOM     58  H   UNL     1       5.140   2.629  -4.957  0.00  0.00    +0.000 HD
ENDBRANCH  36  55
ENDBRANCH  35  36
ENDBRANCH   1  35
TORSDOF 9
ENDMDL
MODEL 6
REMARK VINA RESULT:    -8.194      1.909      2.581
REMARK INTER + INTRA:         -14.286
REMARK INTER:                 -11.877
REMARK INTRA:                  -2.410
REMARK UNBOUND:                -2.020
REMARK  Name = 
REMARK  9 active torsions:
REMARK  status: ('A' for Active; 'I' for Inactive)
REMARK    1  A    between atoms: C_1  and  C_2
REMARK    2  A    between atoms: C_2  and  C_3
REMARK    3  A    between atoms: C_2  and  O_17
REMARK    4  A    between atoms: C_5  and  C_13
REMARK    5  A    between atoms: C_7  and  C_9
REMARK    6  A    between atoms: O_17  and  C_18
REMARK    7  A    between atoms: C_19  and  C_31
REMARK    8  A    between atoms: N_20  and  C_24
REMARK    9  A    between atoms: C_24  and  C_25
REMARK                            x       y       z     vdW  Elec       q    Type
REMARK                         _______ _______ _______ _____ _____    ______ ____
ROOT
ATOM      1  C   UNL     1       7.395   0.761  -9.387  0.00  0.00    +0.000 C 
ATOM      2  C   UNL     1       7.114   1.996 -10.333  0.00  0.00    +0.000 C 
ATOM      3  N   UNL     1       7.987   2.011 -11.546  0.00  0.00    +0.000 NA
ATOM      4  C   UNL     1       9.390   1.788 -11.161  0.00  0.00    +0.000 C 
ATOM      5  C   UNL     1       9.533   0.499 -10.346  0.00  0.00    +0.000 C 
ATOM      6  O   UNL     1       8.800   0.598  -9.125  0.00  0.00    +0.000 OA
ATOM      7  H   UNL     1       7.021  -0.163  -9.847  0.00  0.00    +0.000 HD
ATOM      8  H   UNL     1       7.329   2.890  -9.733  0.00  0.00    +0.000 HD
ATOM      9  H   UNL     1      10.015   1.708 -12.058  0.00  0.00    +0.000 HD
ATOM     10  H   UNL     1       9.762   2.624 -10.555  0.00  0.00    +0.000 HD
ATOM     11  H   UNL     1      10.586   0.344 -10.084  0.00  0.00    +0.000 HD
ATOM     12  H   UNL     1       9.199  -0.379 -10.911  0.00  0.00    +0.000 HD
ENDROOT
BRANCH   2  13
ATOM     13  C   UNL     1       5.630   1.991 -10.710  0.00  0.00    +0.000 A 
ATOM     14  C   UNL     1       5.066   0.852 -11.310  0.00  0.00    +0.000 A 
ATOM     15  C   UNL     1       3.719   0.835 -11.674  0.00  0.00    +0.000 A 
ATOM     16  C   UNL     1       2.932   1.955 -11.437  0.00  0.00    +0.000 A 
ATOM     17  C   UNL     1       3.465   3.093 -10.844  0.00  0.00    +0.000 A 
ATOM     18  C   UNL     1       4.811   3.112 -10.480  0.00  0.00    +0.000 A 
ATOM     19  F   UNL     1       1.638   1.938 -11.785  0.00  0.00    +0.000 F 
ATOM     20  H   UNL     1       5.678  -0.030 -11.498  0.00  0.00    +0.000 HD
ATOM     21  H   UNL     1       3.281  -0.043 -12.136  0.00  0.00    +0.000 HD
ATOM     22  H   UNL     1       2.828   3.952 -10.665  0.00  0.00    +0.000 HD
ATOM     23  H   UNL     1       5.220   4.001 -10.006  0.00  0.00    +0.000 HD
ENDBRANCH   2  13
BRANCH   3  24
ATOM     24  C   UNL     1       7.813   3.210 -12.397  0.00  0.00    +0.000 C 
ATOM     25  H   UNL     1       7.402   4.017 -11.778  0.00  0.00    +0.000 HD
ATOM     26  H   UNL     1       8.778   3.580 -12.761  0.00  0.00    +0.000 HD
BRANCH  24  27
ATOM     27  C   UNL     1       6.905   3.002 -13.585  0.00  0.00    +0.000 A 
ATOM     28  N   UNL     1       7.070   2.108 -14.518  0.00  0.00    +0.000 NA
ATOM     29  N   UNL     1       6.003   2.308 -15.354  0.00  0.00    +0.000 N 
ATOM     30  C   UNL     1       5.208   3.344 -14.888  0.00  0.00    +0.000 A 
ATOM     31  O   UNL     1       4.188   3.784 -15.383  0.00  0.00    +0.000 OA
ATOM     32  N   UNL     1       5.812   3.776 -13.747  0.00  0.00    +0.000 N 
ATOM     33  H   UNL     1       5.843   1.758 -16.188  0.00  0.00    +0.000 HD
ATOM     34  H   UNL     1       5.470   4.529 -13.178  0.00  0.00    +0.000 HD
ENDBRANCH  24  27
ENDBRANCH   3  24
BRANCH   1  35
ATOM     35  O   UNL     1       6.732   0.985  -8.137  0.00  0.00    +0.000 OA
BRANCH  35  36
ATOM     36  C   UNL     1       6.168  -0.202  -7.579  0.00  0.00    +0.000 C 
ATOM     37  H   UNL     1       6.758  -0.560  -6.725  0.00  0.00    +0.000 HD
BRANCH  36  38
ATOM     38  C   UNL     1       4.799   0.187  -7.045  0.00  0.00    +0.000 A 
ATOM     39  C   UNL     1       4.506  -0.101  -5.700  0.00  0.00    +0.000 A 
ATOM     40  C   UNL     1       3.267   0.228  -5.127  0.00  0.00    +0.000 A 
ATOM     41  C   UNL     1       2.309   0.878  -5.919  0.00  0.00    +0.000 A 
ATOM     42  C   UNL     1       2.578   1.196  -7.260  0.00  0.00    +0.000 A 
ATOM     43  C   UNL     1       3.823   0.842  -7.810  0.00  0.00    +0.000 A 
ATOM     44  H   UNL     1       5.268  -0.583  -5.084  0.00  0.00    +0.000 HD
ATOM     45  H   UNL     1       1.345   1.146  -5.484  0.00  0.00    +0.000 HD
ATOM     46  H   UNL     1       4.020   1.100  -8.850  0.00  0.00    +0.000 HD
BRANCH  42  47
ATOM     47  C   UNL     1       1.540   1.882  -8.117  0.00  0.00    +0.000 C 
ATOM     48  F   UNL     1       1.105   1.105  -9.148  0.00  0.00    +0.000 F 
ATOM     49  F   UNL     1       0.428   2.218  -7.408  0.00  0.00    +0.000 F 
ATOM     50  F   UNL     1       1.986   3.038  -8.684  0.00  0.00    +0.000 F 
ENDBRANCH  42  47
BRANCH  40  51
ATOM     51  C   UNL     1       2.992  -0.077  -3.675  0.00  0.00    +0.000 C 
ATOM     52  F   UNL     1       2.520   1.005  -2.997  0.00  0.00    +0.000 F 
ATOM     53  F   UNL     1       2.062  -1.059  -3.505  0.00  0.00    +0.000 F 
ATOM     54  F   UNL     1       4.096  -0.496  -2.995  0.00  0.00    +0.000 F 
ENDBRANCH  40  51
ENDBRANCH  36  38
BRANCH  36  55
ATOM     55  C   UNL     1       6.180  -1.296  -8.647  0.00  0.00    +0.000 C 
ATOM     56  H   UNL     1       7.123  -1.305  -9.202  0.00  0.00    +0.000 HD
ATOM     57  H   UNL     1       5.365  -1.141  -9.364  0.00  0.00    +0.000 HD
ATOM     58  H   UNL     1       6.014  -2.286  -8.209  0.00  0.00    +0.000 HD
ENDBRANCH  36  55
ENDBRANCH  35  36
ENDBRANCH   1  35
TORSDOF 9
ENDMDL
MODEL 7
REMARK VINA RESULT:    -8.050      2.431      3.611
REMARK INTER + INTRA:         -14.071
REMARK INTER:                 -12.462
REMARK INTRA:                  -1.610
REMARK UNBOUND:                -2.020
REMARK  Name = 
REMARK  9 active torsions:
REMARK  status: ('A' for Active; 'I' for Inactive)
REMARK    1  A    between atoms: C_1  and  C_2
REMARK    2  A    between atoms: C_2  and  C_3
REMARK    3  A    between atoms: C_2  and  O_17
REMARK    4  A    between atoms: C_5  and  C_13
REMARK    5  A    between atoms: C_7  and  C_9
REMARK    6  A    between atoms: O_17  and  C_18
REMARK    7  A    between atoms: C_19  and  C_31
REMARK    8  A    between atoms: N_20  and  C_24
REMARK    9  A    between atoms: C_24  and  C_25
REMARK                            x       y       z     vdW  Elec       q    Type
REMARK                         _______ _______ _______ _____ _____    ______ ____
ROOT
ATOM      1  C   UNL     1       5.851   2.019  -8.751  0.00  0.00    +0.000 C 
ATOM      2  C   UNL     1       5.868   2.326 -10.301  0.00  0.00    +0.000 C 
ATOM      3  N   UNL     1       6.081   3.774 -10.607  0.00  0.00    +0.000 NA
ATOM      4  C   UNL     1       5.181   4.600  -9.786  0.00  0.00    +0.000 C 
ATOM      5  C   UNL     1       5.351   4.278  -8.298  0.00  0.00    +0.000 C 
ATOM      6  O   UNL     1       4.989   2.922  -8.037  0.00  0.00    +0.000 OA
ATOM      7  H   UNL     1       6.863   2.107  -8.335  0.00  0.00    +0.000 HD
ATOM      8  H   UNL     1       4.881   2.028 -10.678  0.00  0.00    +0.000 HD
ATOM      9  H   UNL     1       5.403   5.662  -9.943  0.00  0.00    +0.000 HD
ATOM     10  H   UNL     1       4.134   4.421 -10.061  0.00  0.00    +0.000 HD
ATOM     11  H   UNL     1       4.685   4.915  -7.706  0.00  0.00    +0.000 HD
ATOM     12  H   UNL     1       6.377   4.463  -7.957  0.00  0.00    +0.000 HD
ENDROOT
BRANCH   2  13
ATOM     13  C   UNL     1       6.940   1.450 -10.958  0.00  0.00    +0.000 A 
ATOM     14  C   UNL     1       6.608   0.658 -12.070  0.00  0.00    +0.000 A 
ATOM     15  C   UNL     1       7.567  -0.157 -12.672  0.00  0.00    +0.000 A 
ATOM     16  C   UNL     1       8.860  -0.181 -12.164  0.00  0.00    +0.000 A 
ATOM     17  C   UNL     1       9.214   0.593 -11.067  0.00  0.00    +0.000 A 
ATOM     18  C   UNL     1       8.256   1.408 -10.463  0.00  0.00    +0.000 A 
ATOM     19  F   UNL     1       9.782  -0.962 -12.744  0.00  0.00    +0.000 F 
ATOM     20  H   UNL     1       5.596   0.673 -12.473  0.00  0.00    +0.000 HD
ATOM     21  H   UNL     1       7.315  -0.768 -13.532  0.00  0.00    +0.000 HD
ATOM     22  H   UNL     1      10.232   0.560 -10.693  0.00  0.00    +0.000 HD
ATOM     23  H   UNL     1       8.542   2.020  -9.610  0.00  0.00    +0.000 HD
ENDBRANCH   2  13
BRANCH   3  24
ATOM     24  C   UNL     1       6.001   4.103 -12.048  0.00  0.00    +0.000 C 
ATOM     25  H   UNL     1       5.477   3.286 -12.560  0.00  0.00    +0.000 HD
ATOM     26  H   UNL     1       5.392   4.996 -12.216  0.00  0.00    +0.000 HD
BRANCH  24  27
ATOM     27  C   UNL     1       7.341   4.307 -12.713  0.00  0.00    +0.000 A 
ATOM     28  N   UNL     1       8.129   5.330 -12.532  0.00  0.00    +0.000 NA
ATOM     29  N   UNL     1       9.205   5.057 -13.336  0.00  0.00    +0.000 N 
ATOM     30  C   UNL     1       9.028   3.850 -13.994  0.00  0.00    +0.000 A 
ATOM     31  O   UNL     1       9.782   3.309 -14.780  0.00  0.00    +0.000 OA
ATOM     32  N   UNL     1       7.817   3.387 -13.577  0.00  0.00    +0.000 N 
ATOM     33  H   UNL     1      10.006   5.671 -13.414  0.00  0.00    +0.000 HD
ATOM     34  H   UNL     1       7.406   2.525 -13.886  0.00  0.00    +0.000 HD
ENDBRANCH  24  27
ENDBRANCH   3  24
BRANCH   1  35
ATOM     35  O   UNL     1       5.361   0.687  -8.556  0.00  0.00    +0.000 OA
BRANCH  35  36
ATOM     36  C   UNL     1       6.252  -0.136  -7.803  0.00  0.00    +0.000 C 
ATOM     37  H   UNL     1       7.071   0.455  -7.372  0.00  0.00    +0.000 HD
BRANCH  36  38
ATOM     38  C   UNL     1       5.442  -0.689  -6.642  0.00  0.00    +0.000 A 
ATOM     39  C   UNL     1       5.835  -1.920  -6.086  0.00  0.00    +0.000 A 
ATOM     40  C   UNL     1       5.144  -2.500  -5.011  0.00  0.00    +0.000 A 
ATOM     41  C   UNL     1       4.046  -1.816  -4.468  0.00  0.00    +0.000 A 
ATOM     42  C   UNL     1       3.640  -0.577  -4.986  0.00  0.00    +0.000 A 
ATOM     43  C   UNL     1       4.343  -0.027  -6.074  0.00  0.00    +0.000 A 
ATOM     44  H   UNL     1       6.707  -2.432  -6.499  0.00  0.00    +0.000 HD
ATOM     45  H   UNL     1       3.505  -2.252  -3.626  0.00  0.00    +0.000 HD
ATOM     46  H   UNL     1       4.021   0.938  -6.463  0.00  0.00    +0.000 HD
BRANCH  42  47
ATOM     47  C   UNL     1       2.448   0.152  -4.412  0.00  0.00    +0.000 C 
ATOM     48  F   UNL     1       1.392  -0.672  -4.162  0.00  0.00    +0.000 F 
ATOM     49  F   UNL     1       2.738   0.758  -3.227  0.00  0.00    +0.000 F 
ATOM     50  F   UNL     1       1.970   1.133  -5.227  0.00  0.00    +0.000 F 
ENDBRANCH  42  47
BRANCH  40  51
ATOM     51  C   UNL     1       5.604  -3.813  -4.426  0.00  0.00    +0.000 C 
ATOM     52  F   UNL     1       6.923  -3.799  -4.089  0.00  0.00    +0.000 F 
ATOM     53  F   UNL     1       4.932  -4.153  -3.290  0.00  0.00    +0.000 F 
ATOM     54  F   UNL     1       5.443  -4.866  -5.277  0.00  0.00    +0.000 F 
ENDBRANCH  40  51
ENDBRANCH  36  38
BRANCH  36  55
ATOM     55  C   UNL     1       6.867  -1.175  -8.740  0.00  0.00    +0.000 C 
ATOM     56  H   UNL     1       7.832  -0.840  -9.133  0.00  0.00    +0.000 HD
ATOM     57  H   UNL     1       6.203  -1.366  -9.591  0.00  0.00    +0.000 HD
ATOM     58  H   UNL     1       7.001  -2.139  -8.238  0.00  0.00    +0.000 HD
ENDBRANCH  36  55
ENDBRANCH  35  36
ENDBRANCH   1  35
TORSDOF 9
ENDMDL
MODEL 8
REMARK VINA RESULT:    -7.943      1.956      3.398
REMARK INTER + INTRA:         -13.910
REMARK INTER:                 -11.638
REMARK INTRA:                  -2.272
REMARK UNBOUND:                -2.020
REMARK  Name = 
REMARK  9 active torsions:
REMARK  status: ('A' for Active; 'I' for Inactive)
REMARK    1  A    between atoms: C_1  and  C_2
REMARK    2  A    between atoms: C_2  and  C_3
REMARK    3  A    between atoms: C_2  and  O_17
REMARK    4  A    between atoms: C_5  and  C_13
REMARK    5  A    between atoms: C_7  and  C_9
REMARK    6  A    between atoms: O_17  and  C_18
REMARK    7  A    between atoms: C_19  and  C_31
REMARK    8  A    between atoms: N_20  and  C_24
REMARK    9  A    between atoms: C_24  and  C_25
REMARK                            x       y       z     vdW  Elec       q    Type
REMARK                         _______ _______ _______ _____ _____    ______ ____
ROOT
ATOM      1  C   UNL     1       7.574   0.430  -9.214  0.00  0.00    +0.000 C 
ATOM      2  C   UNL     1       7.461   1.672 -10.185  0.00  0.00    +0.000 C 
ATOM      3  N   UNL     1       8.394   1.587 -11.351  0.00  0.00    +0.000 NA
ATOM      4  C   UNL     1       9.747   1.237 -10.889  0.00  0.00    +0.000 C 
ATOM      5  C   UNL     1       9.723  -0.048 -10.055  0.00  0.00    +0.000 C 
ATOM      6  O   UNL     1       8.940   0.138  -8.876  0.00  0.00    +0.000 OA
ATOM      7  H   UNL     1       7.136  -0.460  -9.684  0.00  0.00    +0.000 HD
ATOM      8  H   UNL     1       7.729   2.550  -9.583  0.00  0.00    +0.000 HD
ATOM      9  H   UNL     1      10.407   1.084 -11.751  0.00  0.00    +0.000 HD
ATOM     10  H   UNL     1      10.165   2.042 -10.273  0.00  0.00    +0.000 HD
ATOM     11  H   UNL     1      10.741  -0.298  -9.737  0.00  0.00    +0.000 HD
ATOM     12  H   UNL     1       9.337  -0.898 -10.630  0.00  0.00    +0.000 HD
ENDROOT
BRANCH   2  13
ATOM     13  C   UNL     1       6.005   1.803 -10.640  0.00  0.00    +0.000 A 
ATOM     14  C   UNL     1       5.353   0.701 -11.220  0.00  0.00    +0.000 A 
ATOM     15  C   UNL     1       4.031   0.806 -11.653  0.00  0.00    +0.000 A 
ATOM     16  C   UNL     1       3.357   2.012 -11.508  0.00  0.00    +0.000 A 
ATOM     17  C   UNL     1       3.978   3.116 -10.937  0.00  0.00    +0.000 A 
ATOM     18  C   UNL     1       5.300   3.013 -10.503  0.00  0.00    +0.000 A 
ATOM     19  F   UNL     1       2.087   2.113 -11.923  0.00  0.00    +0.000 F 
ATOM     20  H   UNL     1       5.877  -0.247 -11.336  0.00  0.00    +0.000 HD
ATOM     21  H   UNL     1       3.525  -0.043 -12.100  0.00  0.00    +0.000 HD
ATOM     22  H   UNL     1       3.429   4.045 -10.830  0.00  0.00    +0.000 HD
ATOM     23  H   UNL     1       5.778   3.877 -10.047  0.00  0.00    +0.000 HD
ENDBRANCH   2  13
BRANCH   3  24
ATOM     24  C   UNL     1       8.380   2.785 -12.221  0.00  0.00    +0.000 C 
ATOM     25  H   UNL     1       8.177   3.663 -11.597  0.00  0.00    +0.000 HD
ATOM     26  H   UNL     1       9.364   2.960 -12.667  0.00  0.00    +0.000 HD
BRANCH  24  27
ATOM     27  C   UNL     1       7.357   2.734 -13.330  0.00  0.00    +0.000 A 
ATOM     28  N   UNL     1       7.212   1.761 -14.184  0.00  0.00    +0.000 NA
ATOM     29  N   UNL     1       6.169   2.171 -14.972  0.00  0.00    +0.000 N 
ATOM     30  C   UNL     1       5.706   3.411 -14.559  0.00  0.00    +0.000 A 
ATOM     31  O   UNL     1       4.797   4.066 -15.033  0.00  0.00    +0.000 OA
ATOM     32  N   UNL     1       6.489   3.753 -13.500  0.00  0.00    +0.000 N 
ATOM     33  H   UNL     1       5.807   1.622 -15.741  0.00  0.00    +0.000 HD
ATOM     34  H   UNL     1       6.399   4.610 -12.984  0.00  0.00    +0.000 HD
ENDBRANCH  24  27
ENDBRANCH   3  24
BRANCH   1  35
ATOM     35  O   UNL     1       6.871   0.735  -8.003  0.00  0.00    +0.000 OA
BRANCH  35  36
ATOM     36  C   UNL     1       6.263  -0.409  -7.403  0.00  0.00    +0.000 C 
ATOM     37  H   UNL     1       6.855  -0.776  -6.554  0.00  0.00    +0.000 HD
BRANCH  36  38
ATOM     38  C   UNL     1       4.928   0.059  -6.848  0.00  0.00    +0.000 A 
ATOM     39  C   UNL     1       4.053   0.741  -7.711  0.00  0.00    +0.000 A 
ATOM     40  C   UNL     1       2.800   1.204  -7.279  0.00  0.00    +0.000 A 
ATOM     41  C   UNL     1       2.410   0.956  -5.955  0.00  0.00    +0.000 A 
ATOM     42  C   UNL     1       3.252   0.261  -5.073  0.00  0.00    +0.000 A 
ATOM     43  C   UNL     1       4.508  -0.178  -5.530  0.00  0.00    +0.000 A 
ATOM     44  H   UNL     1       4.355   0.906  -8.748  0.00  0.00    +0.000 HD
ATOM     45  H   UNL     1       1.435   1.303  -5.608  0.00  0.00    +0.000 HD
ATOM     46  H   UNL     1       5.149  -0.721  -4.837  0.00  0.00    +0.000 HD
BRANCH  42  47
ATOM     47  C   UNL     1       2.839   0.009  -3.642  0.00  0.00    +0.000 C 
ATOM     48  F   UNL     1       1.891  -0.963  -3.527  0.00  0.00    +0.000 F 
ATOM     49  F   UNL     1       3.884  -0.395  -2.868  0.00  0.00    +0.000 F 
ATOM     50  F   UNL     1       2.320   1.108  -3.027  0.00  0.00    +0.000 F 
ENDBRANCH  42  47
BRANCH  40  51
ATOM     51  C   UNL     1       1.876   1.916  -8.237  0.00  0.00    +0.000 C 
ATOM     52  F   UNL     1       1.542   1.145  -9.307  0.00  0.00    +0.000 F 
ATOM     53  F   UNL     1       0.698   2.287  -7.661  0.00  0.00    +0.000 F 
ATOM     54  F   UNL     1       2.412   3.060  -8.748  0.00  0.00    +0.000 F 
ENDBRANCH  40  51
ENDBRANCH  36  38
BRANCH  36  55
ATOM     55  C   UNL     1       6.196  -1.528  -8.443  0.00  0.00    +0.000 C 
ATOM     56  H   UNL     1       5.691  -1.197  -9.356  0.00  0.00    +0.000 HD
ATOM     57  H   UNL     1       5.647  -2.389  -8.045  0.00  0.00    +0.000 HD
ATOM     58  H   UNL     1       7.194  -1.897  -8.701  0.00  0.00    +0.000 HD
ENDBRANCH  36  55
ENDBRANCH  35  36
ENDBRANCH   1  35
TORSDOF 9
ENDMDL
