MODEL 1
REMARK VINA RESULT:    -3.218      0.000      0.000
REMARK INTER + INTRA:          -2.897
REMARK INTER:                  -4.253
REMARK INTRA:                   1.357
REMARK UNBOUND:                 1.357
REMARK SMILES COC(=O)[C@H]1c2c(cccc2OC)C[C@@H]2[C@@H]1CC[C@@]21C(=O)N(C2CC2)C(=O)[C@]1(O)C(C)(C)C
REMARK SMILES IDX 5 1 16 2 17 3 18 4 19 5 20 6 21 7 22 8 26 9 27 10 28 11
REMARK SMILES IDX 15 12 14 13 7 14 8 15 9 16 10 17 11 18 6 19 3 20 4 21 2 22
REMARK SMILES IDX 1 23 12 24 13 25 30 26 31 27 32 28 33 29 29 30 23 32 24 33
REMARK SMILES IDX 25 34
REMARK H PARENT 29 31
ROOT
ATOM      1  C   UNL     1       4.705   0.629  -6.446  1.00  0.00     0.136 C 
ATOM      2  C   UNL     1       4.621   1.329  -7.814  1.00  0.00     0.012 C 
ATOM      3  C   UNL     1       4.806   2.841  -7.770  1.00  0.00     0.006 C 
ATOM      4  C   UNL     1       5.260   3.233  -9.181  1.00  0.00     0.021 C 
ATOM      5  C   UNL     1       5.708   1.923  -9.904  1.00  0.00     0.091 C 
ATOM      6  C   UNL     1       7.144   2.230 -10.362  1.00  0.00     0.239 C 
ATOM      7  O   UNL     1       8.149   2.055  -9.685  1.00  0.00    -0.274 OA
ATOM      8  N   UNL     1       7.079   2.827 -11.597  1.00  0.00    -0.276 N 
ATOM      9  C   UNL     1       5.836   2.659 -12.157  1.00  0.00     0.263 C 
ATOM     10  O   UNL     1       5.450   3.190 -13.190  1.00  0.00    -0.271 OA
ATOM     11  C   UNL     1       5.061   1.623 -11.308  1.00  0.00     0.163 C 
ATOM     12  C   UNL     1       5.738   0.886  -8.753  1.00  0.00     0.017 C 
ATOM     13  C   UNL     1       5.647  -0.603  -9.043  1.00  0.00     0.041 C 
ATOM     14  C   UNL     1       5.554  -1.408  -7.764  1.00  0.00    -0.040 A 
ATOM     15  C   UNL     1       5.902  -2.766  -7.820  1.00  0.00     0.004 A 
ATOM     16  C   UNL     1       5.861  -3.557  -6.677  1.00  0.00     0.004 A 
ATOM     17  C   UNL     1       5.478  -3.001  -5.459  1.00  0.00     0.047 A 
ATOM     18  C   UNL     1       5.109  -1.655  -5.379  1.00  0.00     0.123 A 
ATOM     19  C   UNL     1       5.111  -0.848  -6.542  1.00  0.00     0.012 A 
ENDROOT
BRANCH   1  20
ATOM     20  C   UNL     1       3.369   0.864  -5.746  1.00  0.00     0.313 C 
ATOM     21  O   UNL     1       3.256   1.459  -4.679  1.00  0.00    -0.252 OA
BRANCH  20  22
ATOM     22  O   UNL     1       2.315   0.431  -6.498  1.00  0.00    -0.469 OA
ATOM     23  C   UNL     1       1.469   1.476  -6.972  1.00  0.00     0.282 C 
ENDBRANCH  20  22
ENDBRANCH   1  20
BRANCH  18  24
ATOM     24  O   UNL     1       4.758  -1.025  -4.212  1.00  0.00    -0.496 OA
ATOM     25  C   UNL     1       5.792  -0.737  -3.281  1.00  0.00     0.278 C 
ENDBRANCH  18  24
BRANCH  11  26
ATOM     26  C   UNL     1       3.492   1.567 -11.592  1.00  0.00     0.001 C 
ATOM     27  C   UNL     1       3.009   0.135 -11.928  1.00  0.00     0.014 C 
ATOM     28  C   UNL     1       2.612   2.090 -10.446  1.00  0.00     0.014 C 
ATOM     29  C   UNL     1       3.091   2.395 -12.853  1.00  0.00     0.014 C 
ENDBRANCH  11  26
BRANCH  11  30
ATOM     30  O   UNL     1       5.606   0.345 -11.741  1.00  0.00    -0.378 OA
ATOM     31  H   UNL     1       5.679  -0.240 -10.965  1.00  0.00     0.212 HD
ENDBRANCH  11  30
BRANCH   8  32
ATOM     32  C   UNL     1       8.147   3.509 -12.277  1.00  0.00     0.094 C 
ATOM     33  C   UNL     1       8.044   4.944 -12.726  1.00  0.00     0.028 C 
ATOM     34  C   UNL     1       8.116   3.841 -13.745  1.00  0.00     0.028 C 
ENDBRANCH   8  32
TORSDOF 6
ENDMDL
