MODEL 1
REMARK VINA RESULT:    -9.431      0.000      0.000
REMARK INTER + INTRA:          -9.707
REMARK INTER:                  -9.707
REMARK INTRA:                   0.000
REMARK UNBOUND:                 0.000
REMARK SMILES Cc1cc2c(cc1C)-c1c(n(C)c3ccc(O)cc13)C2=O
REMARK SMILES IDX 8 1 7 2 6 3 5 4 4 5 3 6 2 7 1 8 20 9 21 10 10 11 9 12 19 13
REMARK SMILES IDX 18 14 16 15 15 16 14 17 13 18 11 19 12 20 17 21
REMARK H PARENT 17 22
ROOT
ATOM      1  C   UNL     1     110.443 131.966  92.864  1.00  0.00     0.044 C 
ATOM      2  C   UNL     1     110.469 130.650  93.598  1.00  0.00    -0.048 A 
ATOM      3  C   UNL     1     111.533 130.393  94.489  1.00  0.00     0.013 A 
ATOM      4  C   UNL     1     111.549 129.188  95.156  1.00  0.00    -0.004 A 
ATOM      5  C   UNL     1     110.527 128.236  94.951  1.00  0.00     0.032 A 
ATOM      6  C   UNL     1     109.473 128.456  94.088  1.00  0.00     0.016 A 
ATOM      7  C   UNL     1     109.439 129.680  93.398  1.00  0.00    -0.047 A 
ATOM      8  C   UNL     1     108.299 129.946  92.449  1.00  0.00     0.044 C 
ATOM      9  C   UNL     1     110.817 127.046  95.804  1.00  0.00     0.210 C 
ATOM     10  O   UNL     1     110.158 126.028  95.892  1.00  0.00    -0.287 OA
ATOM     11  C   UNL     1     112.037 127.416  96.464  1.00  0.00     0.098 A 
ATOM     12  C   UNL     1     112.489 128.663  96.105  1.00  0.00     0.020 A 
ATOM     13  C   UNL     1     113.677 128.930  96.798  1.00  0.00     0.012 A 
ATOM     14  C   UNL     1     114.580 130.010  96.849  1.00  0.00     0.057 A 
ATOM     15  C   UNL     1     115.692 129.915  97.686  1.00  0.00     0.116 A 
ATOM     16  C   UNL     1     115.926 128.789  98.463  1.00  0.00     0.048 A 
ATOM     17  C   UNL     1     115.045 127.705  98.431  1.00  0.00     0.031 A 
ATOM     18  C   UNL     1     113.922 127.789  97.593  1.00  0.00     0.049 A 
ATOM     19  N   UNL     1     112.895 126.877  97.364  1.00  0.00    -0.340 N 
ATOM     20  C   UNL     1     112.776 125.579  97.985  1.00  0.00     0.150 C 
ENDROOT
BRANCH  15  21
ATOM     21  O   UNL     1     116.598 130.935  97.770  1.00  0.00    -0.508 OA
ATOM     22  H   UNL     1     117.492 130.557  97.753  1.00  0.00     0.293 HD
ENDBRANCH  15  21
TORSDOF 1
ENDMDL
MODEL 2
REMARK VINA RESULT:    -9.266      1.624      2.439
REMARK INTER + INTRA:          -9.536
REMARK INTER:                  -9.536
REMARK INTRA:                   0.000
REMARK UNBOUND:                 0.000
REMARK SMILES Cc1cc2c(cc1C)-c1c(n(C)c3ccc(O)cc13)C2=O
REMARK SMILES IDX 8 1 7 2 6 3 5 4 4 5 3 6 2 7 1 8 20 9 21 10 10 11 9 12 19 13
REMARK SMILES IDX 18 14 16 15 15 16 14 17 13 18 11 19 12 20 17 21
REMARK H PARENT 17 22
ROOT
ATOM      1  C   UNL     1     109.117 128.851  93.882  1.00  0.00     0.044 C 
ATOM      2  C   UNL     1     110.027 127.910  94.628  1.00  0.00    -0.048 A 
ATOM      3  C   UNL     1     111.198 128.427  95.219  1.00  0.00     0.013 A 
ATOM      4  C   UNL     1     112.024 127.559  95.900  1.00  0.00    -0.004 A 
ATOM      5  C   UNL     1     111.703 126.188  96.000  1.00  0.00     0.032 A 
ATOM      6  C   UNL     1     110.566 125.650  95.433  1.00  0.00     0.016 A 
ATOM      7  C   UNL     1     109.711 126.520  94.735  1.00  0.00    -0.047 A 
ATOM      8  C   UNL     1     108.462 125.959  94.106  1.00  0.00     0.044 C 
ATOM      9  C   UNL     1     112.776 125.512  96.787  1.00  0.00     0.210 C 
ATOM     10  O   UNL     1     112.842 124.333  97.078  1.00  0.00    -0.287 OA
ATOM     11  C   UNL     1     113.674 126.589  97.095  1.00  0.00     0.098 A 
ATOM     12  C   UNL     1     113.260 127.798  96.589  1.00  0.00     0.020 A 
ATOM     13  C   UNL     1     114.196 128.779  96.940  1.00  0.00     0.012 A 
ATOM     14  C   UNL     1     114.318 130.166  96.719  1.00  0.00     0.057 A 
ATOM     15  C   UNL     1     115.426 130.833  97.241  1.00  0.00     0.116 A 
ATOM     16  C   UNL     1     116.403 130.167  97.968  1.00  0.00     0.048 A 
ATOM     17  C   UNL     1     116.305 128.793  98.202  1.00  0.00     0.031 A 
ATOM     18  C   UNL     1     115.193 128.110  97.682  1.00  0.00     0.049 A 
ATOM     19  N   UNL     1     114.841 126.765  97.758  1.00  0.00    -0.340 N 
ATOM     20  C   UNL     1     115.602 125.740  98.433  1.00  0.00     0.150 C 
ENDROOT
BRANCH  15  21
ATOM     21  O   UNL     1     115.591 132.177  97.053  1.00  0.00    -0.508 OA
ATOM     22  H   UNL     1     116.382 132.318  96.507  1.00  0.00     0.293 HD
ENDBRANCH  15  21
TORSDOF 1
ENDMDL
MODEL 3
REMARK VINA RESULT:    -8.909      2.143      5.825
REMARK INTER + INTRA:          -9.169
REMARK INTER:                  -9.169
REMARK INTRA:                   0.000
REMARK UNBOUND:                 0.000
REMARK SMILES Cc1cc2c(cc1C)-c1c(n(C)c3ccc(O)cc13)C2=O
REMARK SMILES IDX 8 1 7 2 6 3 5 4 4 5 3 6 2 7 1 8 20 9 21 10 10 11 9 12 19 13
REMARK SMILES IDX 18 14 16 15 15 16 14 17 13 18 11 19 12 20 17 21
REMARK H PARENT 17 22
ROOT
ATOM      1  C   UNL     1     115.661 130.873  97.342  1.00  0.00     0.044 C 
ATOM      2  C   UNL     1     114.586 129.844  97.105  1.00  0.00    -0.048 A 
ATOM      3  C   UNL     1     113.571 130.129  96.168  1.00  0.00     0.013 A 
ATOM      4  C   UNL     1     112.592 129.182  95.957  1.00  0.00    -0.004 A 
ATOM      5  C   UNL     1     112.606 127.960  96.665  1.00  0.00     0.032 A 
ATOM      6  C   UNL     1     113.583 127.651  97.589  1.00  0.00     0.016 A 
ATOM      7  C   UNL     1     114.591 128.604  97.816  1.00  0.00    -0.047 A 
ATOM      8  C   UNL     1     115.671 128.292  98.820  1.00  0.00     0.044 C 
ATOM      9  C   UNL     1     111.431 127.151  96.226  1.00  0.00     0.210 C 
ATOM     10  O   UNL     1     111.116 126.044  96.616  1.00  0.00    -0.287 OA
ATOM     11  C   UNL     1     110.800 128.004  95.258  1.00  0.00     0.098 A 
ATOM     12  C   UNL     1     111.457 129.197  95.080  1.00  0.00     0.020 A 
ATOM     13  C   UNL     1     110.768 129.953  94.123  1.00  0.00     0.012 A 
ATOM     14  C   UNL     1     110.948 131.222  93.536  1.00  0.00     0.057 A 
ATOM     15  C   UNL     1     110.026 131.657  92.583  1.00  0.00     0.116 A 
ATOM     16  C   UNL     1     108.946 130.873  92.203  1.00  0.00     0.048 A 
ATOM     17  C   UNL     1     108.745 129.611  92.769  1.00  0.00     0.031 A 
ATOM     18  C   UNL     1     109.667 129.163  93.729  1.00  0.00     0.049 A 
ATOM     19  N   UNL     1     109.716 127.970  94.447  1.00  0.00    -0.340 N 
ATOM     20  C   UNL     1     108.766 126.889  94.336  1.00  0.00     0.150 C 
ENDROOT
BRANCH  15  21
ATOM     21  O   UNL     1     110.156 132.879  91.986  1.00  0.00    -0.508 OA
ATOM     22  H   UNL     1     110.396 132.744  91.054  1.00  0.00     0.293 HD
ENDBRANCH  15  21
TORSDOF 1
ENDMDL
MODEL 4
REMARK VINA RESULT:    -8.852      1.080      1.396
REMARK INTER + INTRA:          -9.111
REMARK INTER:                  -9.111
REMARK INTRA:                   0.000
REMARK UNBOUND:                 0.000
REMARK SMILES Cc1cc2c(cc1C)-c1c(n(C)c3ccc(O)cc13)C2=O
REMARK SMILES IDX 8 1 7 2 6 3 5 4 4 5 3 6 2 7 1 8 20 9 21 10 10 11 9 12 19 13
REMARK SMILES IDX 18 14 16 15 15 16 14 17 13 18 11 19 12 20 17 21
REMARK H PARENT 17 22
ROOT
ATOM      1  C   UNL     1     110.155 132.887  92.390  1.00  0.00     0.044 C 
ATOM      2  C   UNL     1     110.069 131.461  92.871  1.00  0.00    -0.048 A 
ATOM      3  C   UNL     1     110.964 131.030  93.872  1.00  0.00     0.013 A 
ATOM      4  C   UNL     1     110.879 129.725  94.306  1.00  0.00    -0.004 A 
ATOM      5  C   UNL     1     109.920 128.845  93.760  1.00  0.00     0.032 A 
ATOM      6  C   UNL     1     109.030 129.235  92.780  1.00  0.00     0.016 A 
ATOM      7  C   UNL     1     109.102 130.563  92.325  1.00  0.00    -0.047 A 
ATOM      8  C   UNL     1     108.142 131.015  91.255  1.00  0.00     0.044 C 
ATOM      9  C   UNL     1     110.071 127.516  94.423  1.00  0.00     0.210 C 
ATOM     10  O   UNL     1     109.420 126.511  94.212  1.00  0.00    -0.287 OA
ATOM     11  C   UNL     1     111.153 127.739  95.341  1.00  0.00     0.098 A 
ATOM     12  C   UNL     1     111.645 129.021  95.294  1.00  0.00     0.020 A 
ATOM     13  C   UNL     1     112.690 129.137  96.220  1.00  0.00     0.012 A 
ATOM     14  C   UNL     1     113.557 130.174  96.620  1.00  0.00     0.057 A 
ATOM     15  C   UNL     1     114.508 129.910  97.606  1.00  0.00     0.116 A 
ATOM     16  C   UNL     1     114.616 128.660  98.198  1.00  0.00     0.048 A 
ATOM     17  C   UNL     1     113.768 127.615  97.821  1.00  0.00     0.031 A 
ATOM     18  C   UNL     1     112.808 127.869  96.829  1.00  0.00     0.049 A 
ATOM     19  N   UNL     1     111.847 127.032  96.265  1.00  0.00    -0.340 N 
ATOM     20  C   UNL     1     111.638 125.647  96.614  1.00  0.00     0.150 C 
ENDROOT
BRANCH  15  21
ATOM     21  O   UNL     1     115.372 130.881  98.028  1.00  0.00    -0.508 OA
ATOM     22  H   UNL     1     114.980 131.333  98.793  1.00  0.00     0.293 HD
ENDBRANCH  15  21
TORSDOF 1
ENDMDL
MODEL 5
REMARK VINA RESULT:    -8.837      2.603      5.801
REMARK INTER + INTRA:          -9.096
REMARK INTER:                  -9.096
REMARK INTRA:                   0.000
REMARK UNBOUND:                 0.000
REMARK SMILES Cc1cc2c(cc1C)-c1c(n(C)c3ccc(O)cc13)C2=O
REMARK SMILES IDX 8 1 7 2 6 3 5 4 4 5 3 6 2 7 1 8 20 9 21 10 10 11 9 12 19 13
REMARK SMILES IDX 18 14 16 15 15 16 14 17 13 18 11 19 12 20 17 21
REMARK H PARENT 17 22
ROOT
ATOM      1  C   UNL     1     113.799 131.791  97.728  1.00  0.00     0.044 C 
ATOM      2  C   UNL     1     113.888 130.313  97.445  1.00  0.00    -0.048 A 
ATOM      3  C   UNL     1     112.745 129.648  96.954  1.00  0.00     0.013 A 
ATOM      4  C   UNL     1     112.836 128.298  96.698  1.00  0.00    -0.004 A 
ATOM      5  C   UNL     1     114.042 127.600  96.923  1.00  0.00     0.032 A 
ATOM      6  C   UNL     1     115.178 128.220  97.403  1.00  0.00     0.016 A 
ATOM      7  C   UNL     1     115.105 129.598  97.669  1.00  0.00    -0.047 A 
ATOM      8  C   UNL     1     116.330 130.301  98.195  1.00  0.00     0.044 C 
ATOM      9  C   UNL     1     113.831 126.168  96.557  1.00  0.00     0.210 C 
ATOM     10  O   UNL     1     114.645 125.267  96.619  1.00  0.00    -0.287 OA
ATOM     11  C   UNL     1     112.460 126.146  96.131  1.00  0.00     0.098 A 
ATOM     12  C   UNL     1     111.853 127.377  96.202  1.00  0.00     0.020 A 
ATOM     13  C   UNL     1     110.527 127.252  95.768  1.00  0.00     0.012 A 
ATOM     14  C   UNL     1     109.439 128.135  95.618  1.00  0.00     0.057 A 
ATOM     15  C   UNL     1     108.229 127.633  95.140  1.00  0.00     0.116 A 
ATOM     16  C   UNL     1     108.074 126.294  94.811  1.00  0.00     0.048 A 
ATOM     17  C   UNL     1     109.136 125.398  94.949  1.00  0.00     0.031 A 
ATOM     18  C   UNL     1     110.360 125.891  95.430  1.00  0.00     0.049 A 
ATOM     19  N   UNL     1     111.569 125.240  95.665  1.00  0.00    -0.340 N 
ATOM     20  C   UNL     1     111.816 123.834  95.446  1.00  0.00     0.150 C 
ENDROOT
BRANCH  15  21
ATOM     21  O   UNL     1     107.144 128.449  94.977  1.00  0.00    -0.508 OA
ATOM     22  H   UNL     1     107.279 129.252  95.506  1.00  0.00     0.293 HD
ENDBRANCH  15  21
TORSDOF 1
ENDMDL
MODEL 6
REMARK VINA RESULT:    -8.689      1.557      2.043
REMARK INTER + INTRA:          -8.943
REMARK INTER:                  -8.943
REMARK INTRA:                   0.000
REMARK UNBOUND:                 0.000
REMARK SMILES Cc1cc2c(cc1C)-c1c(n(C)c3ccc(O)cc13)C2=O
REMARK SMILES IDX 8 1 7 2 6 3 5 4 4 5 3 6 2 7 1 8 20 9 21 10 10 11 9 12 19 13
REMARK SMILES IDX 18 14 16 15 15 16 14 17 13 18 11 19 12 20 17 21
REMARK H PARENT 17 22
ROOT
ATOM      1  C   UNL     1     108.162 129.433  92.878  1.00  0.00     0.044 C 
ATOM      2  C   UNL     1     108.982 128.382  93.583  1.00  0.00    -0.048 A 
ATOM      3  C   UNL     1     110.020 128.798  94.442  1.00  0.00     0.013 A 
ATOM      4  C   UNL     1     110.764 127.831  95.083  1.00  0.00    -0.004 A 
ATOM      5  C   UNL     1     110.491 126.460  94.882  1.00  0.00     0.032 A 
ATOM      6  C   UNL     1     109.483 126.020  94.049  1.00  0.00     0.016 A 
ATOM      7  C   UNL     1     108.713 126.993  93.387  1.00  0.00    -0.047 A 
ATOM      8  C   UNL     1     107.606 126.540  92.470  1.00  0.00     0.044 C 
ATOM      9  C   UNL     1     111.453 125.666  95.701  1.00  0.00     0.210 C 
ATOM     10  O   UNL     1     111.522 124.455  95.783  1.00  0.00    -0.287 OA
ATOM     11  C   UNL     1     112.242 126.681  96.340  1.00  0.00     0.098 A 
ATOM     12  C   UNL     1     111.862 127.956  95.998  1.00  0.00     0.020 A 
ATOM     13  C   UNL     1     112.687 128.868  96.668  1.00  0.00     0.012 A 
ATOM     14  C   UNL     1     112.783 130.273  96.721  1.00  0.00     0.057 A 
ATOM     15  C   UNL     1     113.764 130.848  97.529  1.00  0.00     0.116 A 
ATOM     16  C   UNL     1     114.640 130.073  98.276  1.00  0.00     0.048 A 
ATOM     17  C   UNL     1     114.565 128.678  98.242  1.00  0.00     0.031 A 
ATOM     18  C   UNL     1     113.582 128.088  97.432  1.00  0.00     0.049 A 
ATOM     19  N   UNL     1     113.280 126.747  97.207  1.00  0.00    -0.340 N 
ATOM     20  C   UNL     1     113.968 125.626  97.803  1.00  0.00     0.150 C 
ENDROOT
BRANCH  15  21
ATOM     21  O   UNL     1     113.898 132.206  97.615  1.00  0.00    -0.508 OA
ATOM     22  H   UNL     1     114.838 132.430  97.516  1.00  0.00     0.293 HD
ENDBRANCH  15  21
TORSDOF 1
ENDMDL
MODEL 7
REMARK VINA RESULT:    -8.313      2.350      3.703
REMARK INTER + INTRA:          -8.556
REMARK INTER:                  -8.556
REMARK INTRA:                   0.000
REMARK UNBOUND:                 0.000
REMARK SMILES Cc1cc2c(cc1C)-c1c(n(C)c3ccc(O)cc13)C2=O
REMARK SMILES IDX 8 1 7 2 6 3 5 4 4 5 3 6 2 7 1 8 20 9 21 10 10 11 9 12 19 13
REMARK SMILES IDX 18 14 16 15 15 16 14 17 13 18 11 19 12 20 17 21
REMARK H PARENT 17 22
ROOT
ATOM      1  C   UNL     1     109.505 125.243  94.713  1.00  0.00     0.044 C 
ATOM      2  C   UNL     1     110.146 126.530  95.164  1.00  0.00    -0.048 A 
ATOM      3  C   UNL     1     111.388 126.471  95.829  1.00  0.00     0.013 A 
ATOM      4  C   UNL     1     111.966 127.653  96.237  1.00  0.00    -0.004 A 
ATOM      5  C   UNL     1     111.329 128.890  95.996  1.00  0.00     0.032 A 
ATOM      6  C   UNL     1     110.114 128.982  95.349  1.00  0.00     0.016 A 
ATOM      7  C   UNL     1     109.508 127.787  94.924  1.00  0.00    -0.047 A 
ATOM      8  C   UNL     1     108.181 127.859  94.215  1.00  0.00     0.044 C 
ATOM      9  C   UNL     1     112.189 129.977  96.549  1.00  0.00     0.210 C 
ATOM     10  O   UNL     1     111.966 131.172  96.528  1.00  0.00    -0.287 OA
ATOM     11  C   UNL     1     113.306 129.255  97.092  1.00  0.00     0.098 A 
ATOM     12  C   UNL     1     113.203 127.895  96.924  1.00  0.00     0.020 A 
ATOM     13  C   UNL     1     114.333 127.285  97.483  1.00  0.00     0.012 A 
ATOM     14  C   UNL     1     114.785 125.957  97.616  1.00  0.00     0.057 A 
ATOM     15  C   UNL     1     116.004 125.724  98.254  1.00  0.00     0.116 A 
ATOM     16  C   UNL     1     116.775 126.764  98.755  1.00  0.00     0.048 A 
ATOM     17  C   UNL     1     116.349 128.090  98.635  1.00  0.00     0.031 A 
ATOM     18  C   UNL     1     115.124 128.336  97.995  1.00  0.00     0.049 A 
ATOM     19  N   UNL     1     114.463 129.535  97.737  1.00  0.00    -0.340 N 
ATOM     20  C   UNL     1     114.941 130.847  98.103  1.00  0.00     0.150 C 
ENDROOT
BRANCH  15  21
ATOM     21  O   UNL     1     116.486 124.455  98.409  1.00  0.00    -0.508 OA
ATOM     22  H   UNL     1     116.939 124.194  97.590  1.00  0.00     0.293 HD
ENDBRANCH  15  21
TORSDOF 1
ENDMDL
MODEL 8
REMARK VINA RESULT:    -8.120      2.637      6.873
REMARK INTER + INTRA:          -8.358
REMARK INTER:                  -8.358
REMARK INTRA:                   0.000
REMARK UNBOUND:                 0.000
REMARK SMILES Cc1cc2c(cc1C)-c1c(n(C)c3ccc(O)cc13)C2=O
REMARK SMILES IDX 8 1 7 2 6 3 5 4 4 5 3 6 2 7 1 8 20 9 21 10 10 11 9 12 19 13
REMARK SMILES IDX 18 14 16 15 15 16 14 17 13 18 11 19 12 20 17 21
REMARK H PARENT 17 22
ROOT
ATOM      1  C   UNL     1     113.758 126.958  98.027  1.00  0.00     0.044 C 
ATOM      2  C   UNL     1     113.050 127.801  96.997  1.00  0.00    -0.048 A 
ATOM      3  C   UNL     1     111.842 127.325  96.446  1.00  0.00     0.013 A 
ATOM      4  C   UNL     1     111.202 128.103  95.506  1.00  0.00    -0.004 A 
ATOM      5  C   UNL     1     111.745 129.343  95.105  1.00  0.00     0.032 A 
ATOM      6  C   UNL     1     112.925 129.837  95.623  1.00  0.00     0.016 A 
ATOM      7  C   UNL     1     113.592 129.058  96.585  1.00  0.00    -0.047 A 
ATOM      8  C   UNL     1     114.882 129.573  97.167  1.00  0.00     0.044 C 
ATOM      9  C   UNL     1     110.836 129.945  94.085  1.00  0.00     0.210 C 
ATOM     10  O   UNL     1     110.977 131.009  93.513  1.00  0.00    -0.287 OA
ATOM     11  C   UNL     1     109.793 128.965  93.969  1.00  0.00     0.098 A 
ATOM     12  C   UNL     1     109.981 127.878  94.788  1.00  0.00     0.020 A 
ATOM     13  C   UNL     1     108.917 126.985  94.602  1.00  0.00     0.012 A 
ATOM     14  C   UNL     1     108.561 125.733  95.143  1.00  0.00     0.057 A 
ATOM     15  C   UNL     1     107.386 125.122  94.701  1.00  0.00     0.116 A 
ATOM     16  C   UNL     1     106.568 125.716  93.751  1.00  0.00     0.048 A 
ATOM     17  C   UNL     1     106.898 126.957  93.200  1.00  0.00     0.031 A 
ATOM     18  C   UNL     1     108.078 127.582  93.637  1.00  0.00     0.049 A 
ATOM     19  N   UNL     1     108.646 128.799  93.268  1.00  0.00    -0.340 N 
ATOM     20  C   UNL     1     108.096 129.719  92.301  1.00  0.00     0.150 C 
ENDROOT
BRANCH  15  21
ATOM     21  O   UNL     1     106.997 123.908  95.194  1.00  0.00    -0.508 OA
ATOM     22  H   UNL     1     107.233 123.222  94.548  1.00  0.00     0.293 HD
ENDBRANCH  15  21
TORSDOF 1
ENDMDL
MODEL 9
REMARK VINA RESULT:    -7.973      4.731      9.248
REMARK INTER + INTRA:          -8.206
REMARK INTER:                  -8.206
REMARK INTRA:                   0.000
REMARK UNBOUND:                 0.000
REMARK SMILES Cc1cc2c(cc1C)-c1c(n(C)c3ccc(O)cc13)C2=O
REMARK SMILES IDX 8 1 7 2 6 3 5 4 4 5 3 6 2 7 1 8 20 9 21 10 10 11 9 12 19 13
REMARK SMILES IDX 18 14 16 15 15 16 14 17 13 18 11 19 12 20 17 21
REMARK H PARENT 17 22
ROOT
ATOM      1  C   UNL     1     110.089 127.601  94.830  1.00  0.00     0.044 C 
ATOM      2  C   UNL     1     110.061 128.566  93.673  1.00  0.00    -0.048 A 
ATOM      3  C   UNL     1     109.268 128.252  92.549  1.00  0.00     0.013 A 
ATOM      4  C   UNL     1     109.248 129.140  91.496  1.00  0.00    -0.004 A 
ATOM      5  C   UNL     1     110.004 130.332  91.543  1.00  0.00     0.032 A 
ATOM      6  C   UNL     1     110.790 130.668  92.626  1.00  0.00     0.016 A 
ATOM      7  C   UNL     1     110.822 129.774  93.711  1.00  0.00    -0.047 A 
ATOM      8  C   UNL     1     111.672 130.117  94.907  1.00  0.00     0.044 C 
ATOM      9  C   UNL     1     109.781 131.078  90.270  1.00  0.00     0.210 C 
ATOM     10  O   UNL     1     110.265 132.147  89.951  1.00  0.00    -0.287 OA
ATOM     11  C   UNL     1     108.875 130.225  89.554  1.00  0.00     0.098 A 
ATOM     12  C   UNL     1     108.546 129.085  90.246  1.00  0.00     0.020 A 
ATOM     13  C   UNL     1     107.664 128.323  89.469  1.00  0.00     0.012 A 
ATOM     14  C   UNL     1     106.997 127.093  89.634  1.00  0.00     0.057 A 
ATOM     15  C   UNL     1     106.168 126.636  88.608  1.00  0.00     0.116 A 
ATOM     16  C   UNL     1     105.987 127.362  87.439  1.00  0.00     0.048 A 
ATOM     17  C   UNL     1     106.636 128.585  87.251  1.00  0.00     0.031 A 
ATOM     18  C   UNL     1     107.473 129.055  88.276  1.00  0.00     0.049 A 
ATOM     19  N   UNL     1     108.232 130.219  88.361  1.00  0.00    -0.340 N 
ATOM     20  C   UNL     1     108.313 131.240  87.343  1.00  0.00     0.150 C 
ENDROOT
BRANCH  15  21
ATOM     21  O   UNL     1     105.500 125.449  88.720  1.00  0.00    -0.508 OA
ATOM     22  H   UNL     1     105.686 124.914  87.931  1.00  0.00     0.293 HD
ENDBRANCH  15  21
TORSDOF 1
ENDMDL
