MODEL 1
REMARK VINA RESULT:    -8.137      0.000      0.000
REMARK INTER + INTRA:          -8.375
REMARK INTER:                  -8.375
REMARK INTRA:                   0.000
REMARK UNBOUND:                 0.000
REMARK SMILES Cc1cc2c(cc1C)-c1c(n(C)c3ccc(O)cc13)C2=O
REMARK SMILES IDX 8 1 7 2 6 3 5 4 4 5 3 6 2 7 1 8 20 9 21 10 10 11 9 12 19 13
REMARK SMILES IDX 18 14 16 15 15 16 14 17 13 18 11 19 12 20 17 21
REMARK H PARENT 17 22
ROOT
ATOM      1  C   UNL     1       6.402   3.925  -6.362  1.00  0.00     0.044 C 
ATOM      2  C   UNL     1       7.674   4.155  -7.137  1.00  0.00    -0.048 A 
ATOM      3  C   UNL     1       7.715   3.784  -8.497  1.00  0.00     0.013 A 
ATOM      4  C   UNL     1       8.882   3.998  -9.198  1.00  0.00    -0.004 A 
ATOM      5  C   UNL     1      10.007   4.572  -8.567  1.00  0.00     0.032 A 
ATOM      6  C   UNL     1      10.001   4.946  -7.238  1.00  0.00     0.016 A 
ATOM      7  C   UNL     1       8.818   4.736  -6.507  1.00  0.00    -0.047 A 
ATOM      8  C   UNL     1       8.784   5.134  -5.055  1.00  0.00     0.044 C 
ATOM      9  C   UNL     1      11.106   4.676  -9.571  1.00  0.00     0.210 C 
ATOM     10  O   UNL     1      12.224   5.120  -9.394  1.00  0.00    -0.287 OA
ATOM     11  C   UNL     1      10.507   4.129 -10.757  1.00  0.00     0.098 A 
ATOM     12  C   UNL     1       9.208   3.725 -10.568  1.00  0.00     0.020 A 
ATOM     13  C   UNL     1       8.715   3.210 -11.774  1.00  0.00     0.012 A 
ATOM     14  C   UNL     1       7.489   2.660 -12.197  1.00  0.00     0.057 A 
ATOM     15  C   UNL     1       7.363   2.241 -13.522  1.00  0.00     0.116 A 
ATOM     16  C   UNL     1       8.410   2.354 -14.425  1.00  0.00     0.048 A 
ATOM     17  C   UNL     1       9.636   2.898 -14.032  1.00  0.00     0.031 A 
ATOM     18  C   UNL     1       9.775   3.323 -12.701  1.00  0.00     0.049 A 
ATOM     19  N   UNL     1      10.862   3.892 -12.042  1.00  0.00    -0.340 N 
ATOM     20  C   UNL     1      12.145   4.175 -12.639  1.00  0.00     0.150 C 
ENDROOT
BRANCH  15  21
ATOM     21  O   UNL     1       6.195   1.700 -13.980  1.00  0.00    -0.508 OA
ATOM     22  H   UNL     1       6.364   0.783 -14.251  1.00  0.00     0.293 HD
ENDBRANCH  15  21
TORSDOF 1
ENDMDL
MODEL 2
REMARK VINA RESULT:    -7.937      2.322      6.918
REMARK INTER + INTRA:          -8.169
REMARK INTER:                  -8.169
REMARK INTRA:                   0.000
REMARK UNBOUND:                 0.000
REMARK SMILES Cc1cc2c(cc1C)-c1c(n(C)c3ccc(O)cc13)C2=O
REMARK SMILES IDX 8 1 7 2 6 3 5 4 4 5 3 6 2 7 1 8 20 9 21 10 10 11 9 12 19 13
REMARK SMILES IDX 18 14 16 15 15 16 14 17 13 18 11 19 12 20 17 21
REMARK H PARENT 17 22
ROOT
ATOM      1  C   UNL     1      13.723   4.479 -11.785  1.00  0.00     0.044 C 
ATOM      2  C   UNL     1      12.304   4.166 -11.385  1.00  0.00    -0.048 A 
ATOM      3  C   UNL     1      11.894   4.452 -10.066  1.00  0.00     0.013 A 
ATOM      4  C   UNL     1      10.595   4.162  -9.709  1.00  0.00    -0.004 A 
ATOM      5  C   UNL     1       9.700   3.593 -10.642  1.00  0.00     0.032 A 
ATOM      6  C   UNL     1      10.070   3.301 -11.939  1.00  0.00     0.016 A 
ATOM      7  C   UNL     1      11.391   3.590 -12.322  1.00  0.00    -0.047 A 
ATOM      8  C   UNL     1      11.821   3.281 -13.732  1.00  0.00     0.044 C 
ATOM      9  C   UNL     1       8.383   3.397  -9.968  1.00  0.00     0.210 C 
ATOM     10  O   UNL     1       7.371   2.931 -10.455  1.00  0.00    -0.287 OA
ATOM     11  C   UNL     1       8.627   3.888  -8.641  1.00  0.00     0.098 A 
ATOM     12  C   UNL     1       9.911   4.342  -8.460  1.00  0.00     0.020 A 
ATOM     13  C   UNL     1      10.049   4.797  -7.143  1.00  0.00     0.012 A 
ATOM     14  C   UNL     1      11.096   5.359  -6.386  1.00  0.00     0.057 A 
ATOM     15  C   UNL     1      10.854   5.700  -5.055  1.00  0.00     0.116 A 
ATOM     16  C   UNL     1       9.613   5.502  -4.466  1.00  0.00     0.048 A 
ATOM     17  C   UNL     1       8.558   4.947  -5.194  1.00  0.00     0.031 A 
ATOM     18  C   UNL     1       8.790   4.599  -6.535  1.00  0.00     0.049 A 
ATOM     19  N   UNL     1       7.939   4.039  -7.484  1.00  0.00    -0.340 N 
ATOM     20  C   UNL     1       6.558   3.682  -7.260  1.00  0.00     0.150 C 
ENDROOT
BRANCH  15  21
ATOM     21  O   UNL     1      11.837   6.248  -4.279  1.00  0.00    -0.508 OA
ATOM     22  H   UNL     1      11.552   6.216  -3.351  1.00  0.00     0.293 HD
ENDBRANCH  15  21
TORSDOF 1
ENDMDL
MODEL 3
REMARK VINA RESULT:    -7.690      2.068      3.794
REMARK INTER + INTRA:          -7.915
REMARK INTER:                  -7.915
REMARK INTRA:                   0.000
REMARK UNBOUND:                 0.000
REMARK SMILES Cc1cc2c(cc1C)-c1c(n(C)c3ccc(O)cc13)C2=O
REMARK SMILES IDX 8 1 7 2 6 3 5 4 4 5 3 6 2 7 1 8 20 9 21 10 10 11 9 12 19 13
REMARK SMILES IDX 18 14 16 15 15 16 14 17 13 18 11 19 12 20 17 21
REMARK H PARENT 17 22
ROOT
ATOM      1  C   UNL     1      12.011   6.285  -5.376  1.00  0.00     0.044 C 
ATOM      2  C   UNL     1      10.868   5.590  -6.069  1.00  0.00    -0.048 A 
ATOM      3  C   UNL     1      11.048   5.150  -7.397  1.00  0.00     0.013 A 
ATOM      4  C   UNL     1       9.997   4.515  -8.023  1.00  0.00    -0.004 A 
ATOM      5  C   UNL     1       8.773   4.314  -7.350  1.00  0.00     0.032 A 
ATOM      6  C   UNL     1       8.563   4.732  -6.052  1.00  0.00     0.016 A 
ATOM      7  C   UNL     1       9.624   5.381  -5.397  1.00  0.00    -0.047 A 
ATOM      8  C   UNL     1       9.423   5.848  -3.979  1.00  0.00     0.044 C 
ATOM      9  C   UNL     1       7.839   3.608  -8.277  1.00  0.00     0.210 C 
ATOM     10  O   UNL     1       6.695   3.267  -8.048  1.00  0.00    -0.287 OA
ATOM     11  C   UNL     1       8.629   3.450  -9.466  1.00  0.00     0.098 A 
ATOM     12  C   UNL     1       9.895   3.971  -9.347  1.00  0.00     0.020 A 
ATOM     13  C   UNL     1      10.582   3.768 -10.551  1.00  0.00     0.012 A 
ATOM     14  C   UNL     1      11.874   4.071 -11.024  1.00  0.00     0.057 A 
ATOM     15  C   UNL     1      12.215   3.701 -12.326  1.00  0.00     0.116 A 
ATOM     16  C   UNL     1      11.317   3.045 -13.156  1.00  0.00     0.048 A 
ATOM     17  C   UNL     1      10.030   2.733 -12.711  1.00  0.00     0.031 A 
ATOM     18  C   UNL     1       9.676   3.101 -11.403  1.00  0.00     0.049 A 
ATOM     19  N   UNL     1       8.484   2.920 -10.704  1.00  0.00    -0.340 N 
ATOM     20  C   UNL     1       7.300   2.277 -11.224  1.00  0.00     0.150 C 
ENDROOT
BRANCH  15  21
ATOM     21  O   UNL     1      13.455   3.972 -12.832  1.00  0.00    -0.508 OA
ATOM     22  H   UNL     1      14.123   3.621 -12.220  1.00  0.00     0.293 HD
ENDBRANCH  15  21
TORSDOF 1
ENDMDL
MODEL 4
REMARK VINA RESULT:    -6.648      1.096      1.233
REMARK INTER + INTRA:          -6.842
REMARK INTER:                  -6.842
REMARK INTRA:                   0.000
REMARK UNBOUND:                 0.000
REMARK SMILES Cc1cc2c(cc1C)-c1c(n(C)c3ccc(O)cc13)C2=O
REMARK SMILES IDX 8 1 7 2 6 3 5 4 4 5 3 6 2 7 1 8 20 9 21 10 10 11 9 12 19 13
REMARK SMILES IDX 18 14 16 15 15 16 14 17 13 18 11 19 12 20 17 21
REMARK H PARENT 17 22
ROOT
ATOM      1  C   UNL     1       5.397   3.645  -6.933  1.00  0.00     0.044 C 
ATOM      2  C   UNL     1       6.817   4.012  -7.277  1.00  0.00    -0.048 A 
ATOM      3  C   UNL     1       7.328   3.635  -8.536  1.00  0.00     0.013 A 
ATOM      4  C   UNL     1       8.628   3.975  -8.842  1.00  0.00    -0.004 A 
ATOM      5  C   UNL     1       9.426   4.681  -7.916  1.00  0.00     0.032 A 
ATOM      6  C   UNL     1       8.957   5.064  -6.676  1.00  0.00     0.016 A 
ATOM      7  C   UNL     1       7.633   4.727  -6.346  1.00  0.00    -0.047 A 
ATOM      8  C   UNL     1       7.096   5.133  -4.998  1.00  0.00     0.044 C 
ATOM      9  C   UNL     1      10.770   4.900  -8.527  1.00  0.00     0.210 C 
ATOM     10  O   UNL     1      11.719   5.472  -8.027  1.00  0.00    -0.287 OA
ATOM     11  C   UNL     1      10.641   4.277  -9.814  1.00  0.00     0.098 A 
ATOM     12  C   UNL     1       9.400   3.728 -10.026  1.00  0.00     0.020 A 
ATOM     13  C   UNL     1       9.374   3.148 -11.301  1.00  0.00     0.012 A 
ATOM     14  C   UNL     1       8.412   2.456 -12.063  1.00  0.00     0.057 A 
ATOM     15  C   UNL     1       8.759   2.012 -13.339  1.00  0.00     0.116 A 
ATOM     16  C   UNL     1      10.021   2.237 -13.871  1.00  0.00     0.048 A 
ATOM     17  C   UNL     1      10.993   2.921 -13.137  1.00  0.00     0.031 A 
ATOM     18  C   UNL     1      10.655   3.372 -11.851  1.00  0.00     0.049 A 
ATOM     19  N   UNL     1      11.409   4.070 -10.910  1.00  0.00    -0.340 N 
ATOM     20  C   UNL     1      12.779   4.493 -11.085  1.00  0.00     0.150 C 
ENDROOT
BRANCH  15  21
ATOM     21  O   UNL     1       7.862   1.336 -14.117  1.00  0.00    -0.508 OA
ATOM     22  H   UNL     1       7.854   0.404 -13.842  1.00  0.00     0.293 HD
ENDBRANCH  15  21
TORSDOF 1
ENDMDL
MODEL 5
REMARK VINA RESULT:    -6.287      2.183      5.775
REMARK INTER + INTRA:          -6.471
REMARK INTER:                  -6.471
REMARK INTRA:                   0.000
REMARK UNBOUND:                 0.000
REMARK SMILES Cc1cc2c(cc1C)-c1c(n(C)c3ccc(O)cc13)C2=O
REMARK SMILES IDX 8 1 7 2 6 3 5 4 4 5 3 6 2 7 1 8 20 9 21 10 10 11 9 12 19 13
REMARK SMILES IDX 18 14 16 15 15 16 14 17 13 18 11 19 12 20 17 21
REMARK H PARENT 17 22
ROOT
ATOM      1  C   UNL     1       7.601   1.897 -13.436  1.00  0.00     0.044 C 
ATOM      2  C   UNL     1       8.633   2.550 -12.553  1.00  0.00    -0.048 A 
ATOM      3  C   UNL     1       8.263   2.927 -11.245  1.00  0.00     0.013 A 
ATOM      4  C   UNL     1       9.213   3.523 -10.444  1.00  0.00    -0.004 A 
ATOM      5  C   UNL     1      10.521   3.751 -10.924  1.00  0.00     0.032 A 
ATOM      6  C   UNL     1      10.915   3.394 -12.198  1.00  0.00     0.016 A 
ATOM      7  C   UNL     1       9.960   2.784 -13.029  1.00  0.00    -0.047 A 
ATOM      8  C   UNL     1      10.363   2.385 -14.425  1.00  0.00     0.044 C 
ATOM      9  C   UNL     1      11.311   4.405  -9.839  1.00  0.00     0.210 C 
ATOM     10  O   UNL     1      12.476   4.750  -9.886  1.00  0.00    -0.287 OA
ATOM     11  C   UNL     1      10.358   4.510  -8.770  1.00  0.00     0.098 A 
ATOM     12  C   UNL     1       9.123   4.003  -9.095  1.00  0.00     0.020 A 
ATOM     13  C   UNL     1       8.270   4.152  -7.994  1.00  0.00     0.012 A 
ATOM     14  C   UNL     1       6.924   3.833  -7.725  1.00  0.00     0.057 A 
ATOM     15  C   UNL     1       6.400   4.142  -6.469  1.00  0.00     0.116 A 
ATOM     16  C   UNL     1       7.169   4.750  -5.488  1.00  0.00     0.048 A 
ATOM     17  C   UNL     1       8.506   5.076  -5.728  1.00  0.00     0.031 A 
ATOM     18  C   UNL     1       9.045   4.770  -6.988  1.00  0.00     0.049 A 
ATOM     19  N   UNL     1      10.325   4.977  -7.499  1.00  0.00    -0.340 N 
ATOM     20  C   UNL     1      11.420   5.587  -6.784  1.00  0.00     0.150 C 
ENDROOT
BRANCH  15  21
ATOM     21  O   UNL     1       5.100   3.853  -6.160  1.00  0.00    -0.508 OA
ATOM     22  H   UNL     1       4.523   4.298  -6.802  1.00  0.00     0.293 HD
ENDBRANCH  15  21
TORSDOF 1
ENDMDL
MODEL 6
REMARK VINA RESULT:    -6.045      1.476      3.803
REMARK INTER + INTRA:          -6.222
REMARK INTER:                  -6.222
REMARK INTRA:                   0.000
REMARK UNBOUND:                 0.000
REMARK SMILES Cc1cc2c(cc1C)-c1c(n(C)c3ccc(O)cc13)C2=O
REMARK SMILES IDX 8 1 7 2 6 3 5 4 4 5 3 6 2 7 1 8 20 9 21 10 10 11 9 12 19 13
REMARK SMILES IDX 18 14 16 15 15 16 14 17 13 18 11 19 12 20 17 21
REMARK H PARENT 17 22
ROOT
ATOM      1  C   UNL     1       8.969   5.494  -5.492  1.00  0.00     0.044 C 
ATOM      2  C   UNL     1       8.442   4.680  -6.646  1.00  0.00    -0.048 A 
ATOM      3  C   UNL     1       9.229   4.571  -7.812  1.00  0.00     0.013 A 
ATOM      4  C   UNL     1       8.739   3.825  -8.862  1.00  0.00    -0.004 A 
ATOM      5  C   UNL     1       7.482   3.189  -8.770  1.00  0.00     0.032 A 
ATOM      6  C   UNL     1       6.689   3.276  -7.645  1.00  0.00     0.016 A 
ATOM      7  C   UNL     1       7.172   4.032  -6.563  1.00  0.00    -0.047 A 
ATOM      8  C   UNL     1       6.325   4.144  -5.322  1.00  0.00     0.044 C 
ATOM      9  C   UNL     1       7.229   2.465 -10.051  1.00  0.00     0.210 C 
ATOM     10  O   UNL     1       6.250   1.804 -10.340  1.00  0.00    -0.287 OA
ATOM     11  C   UNL     1       8.409   2.751 -10.818  1.00  0.00     0.098 A 
ATOM     12  C   UNL     1       9.309   3.543 -10.148  1.00  0.00     0.020 A 
ATOM     13  C   UNL     1      10.419   3.764 -10.975  1.00  0.00     0.012 A 
ATOM     14  C   UNL     1      11.630   4.474 -10.850  1.00  0.00     0.057 A 
ATOM     15  C   UNL     1      12.525   4.467 -11.920  1.00  0.00     0.116 A 
ATOM     16  C   UNL     1      12.251   3.781 -13.095  1.00  0.00     0.048 A 
ATOM     17  C   UNL     1      11.058   3.068 -13.244  1.00  0.00     0.031 A 
ATOM     18  C   UNL     1      10.150   3.068 -12.173  1.00  0.00     0.049 A 
ATOM     19  N   UNL     1       8.905   2.456 -12.043  1.00  0.00    -0.340 N 
ATOM     20  C   UNL     1       8.263   1.647 -13.052  1.00  0.00     0.150 C 
ENDROOT
BRANCH  15  21
ATOM     21  O   UNL     1      13.712   5.140 -11.849  1.00  0.00    -0.508 OA
ATOM     22  H   UNL     1      14.341   4.604 -11.340  1.00  0.00     0.293 HD
ENDBRANCH  15  21
TORSDOF 1
ENDMDL
