MODEL 1
REMARK VINA RESULT:    -5.423      0.000      0.000
REMARK INTER + INTRA:          -6.453
REMARK INTER:                  -6.374
REMARK INTRA:                  -0.078
REMARK UNBOUND:                -0.078
REMARK SMILES NCCc1ccc(O)cc1
REMARK SMILES IDX 3 1 4 2 5 3 6 4 7 5 10 6 9 7 8 8 2 10 1 11
REMARK H PARENT 8 9 1 12 1 13
ROOT
ATOM      1  C   UNL     1     114.185 126.787  98.695  1.00  0.00     0.050 C 
ENDROOT
BRANCH   1   2
ATOM      2  C   UNL     1     114.675 128.094  98.115  1.00  0.00    -0.046 A 
ATOM      3  C   UNL     1     115.650 128.850  98.783  1.00  0.00     0.007 A 
ATOM      4  C   UNL     1     116.109 130.053  98.243  1.00  0.00     0.046 A 
ATOM      5  C   UNL     1     115.592 130.502  97.033  1.00  0.00     0.115 A 
ATOM      6  C   UNL     1     114.166 128.567  96.896  1.00  0.00     0.007 A 
ATOM      7  C   UNL     1     114.624 129.769  96.358  1.00  0.00     0.046 A 
BRANCH   5   8
ATOM      8  O   UNL     1     116.012 131.672  96.471  1.00  0.00    -0.508 OA
ATOM      9  H   UNL     1     115.859 132.392  97.104  1.00  0.00     0.293 HD
ENDBRANCH   5   8
ENDBRANCH   1   2
BRANCH   1  10
ATOM     10  C   UNL     1     112.810 126.350  98.169  1.00  0.00     0.082 C 
BRANCH  10  11
ATOM     11  N   UNL     1     112.822 125.036  97.523  1.00  0.00    -0.330 NA
ATOM     12  H   UNL     1     113.686 124.555  97.782  1.00  0.00     0.118 HD
ATOM     13  H   UNL     1     112.069 124.463  97.900  1.00  0.00     0.118 HD
ENDBRANCH  10  11
ENDBRANCH   1  10
TORSDOF 4
ENDMDL
MODEL 2
REMARK VINA RESULT:    -5.400      0.081      1.531
REMARK INTER + INTRA:          -6.425
REMARK INTER:                  -6.346
REMARK INTRA:                  -0.079
REMARK UNBOUND:                -0.078
REMARK SMILES NCCc1ccc(O)cc1
REMARK SMILES IDX 3 1 4 2 5 3 6 4 7 5 10 6 9 7 8 8 2 10 1 11
REMARK H PARENT 8 9 1 12 1 13
ROOT
ATOM      1  C   UNL     1     114.195 126.766  98.636  1.00  0.00     0.050 C 
ENDROOT
BRANCH   1   2
ATOM      2  C   UNL     1     114.682 128.065  98.037  1.00  0.00    -0.046 A 
ATOM      3  C   UNL     1     114.152 128.534  96.825  1.00  0.00     0.007 A 
ATOM      4  C   UNL     1     114.596 129.739  96.275  1.00  0.00     0.046 A 
ATOM      5  C   UNL     1     115.572 130.476  96.937  1.00  0.00     0.115 A 
ATOM      6  C   UNL     1     115.667 128.824  98.686  1.00  0.00     0.007 A 
ATOM      7  C   UNL     1     116.110 130.027  98.137  1.00  0.00     0.046 A 
BRANCH   5   8
ATOM      8  O   UNL     1     116.033 131.657  96.436  1.00  0.00    -0.508 OA
ATOM      9  H   UNL     1     116.916 131.825  96.803  1.00  0.00     0.293 HD
ENDBRANCH   5   8
ENDBRANCH   1   2
BRANCH   1  10
ATOM     10  C   UNL     1     112.794 126.349  98.163  1.00  0.00     0.082 C 
BRANCH  10  11
ATOM     11  N   UNL     1     112.769 125.053  97.484  1.00  0.00    -0.330 NA
ATOM     12  H   UNL     1     112.870 125.210  96.479  1.00  0.00     0.118 HD
ATOM     13  H   UNL     1     113.586 124.509  97.757  1.00  0.00     0.118 HD
ENDBRANCH  10  11
ENDBRANCH   1  10
TORSDOF 4
ENDMDL
MODEL 3
REMARK VINA RESULT:    -5.384      1.681      2.412
REMARK INTER + INTRA:          -6.407
REMARK INTER:                  -6.466
REMARK INTRA:                   0.059
REMARK UNBOUND:                -0.078
REMARK SMILES NCCc1ccc(O)cc1
REMARK SMILES IDX 3 1 4 2 5 3 6 4 7 5 10 6 9 7 8 8 2 10 1 11
REMARK H PARENT 8 9 1 12 1 13
ROOT
ATOM      1  C   UNL     1     114.841 126.747  98.440  1.00  0.00     0.050 C 
ENDROOT
BRANCH   1   2
ATOM      2  C   UNL     1     115.123 128.122  97.880  1.00  0.00    -0.046 A 
ATOM      3  C   UNL     1     114.558 128.525  96.660  1.00  0.00     0.007 A 
ATOM      4  C   UNL     1     114.810 129.799  96.147  1.00  0.00     0.046 A 
ATOM      5  C   UNL     1     115.630 130.672  96.854  1.00  0.00     0.115 A 
ATOM      6  C   UNL     1     115.948 129.019  98.575  1.00  0.00     0.007 A 
ATOM      7  C   UNL     1     116.200 130.291  98.062  1.00  0.00     0.046 A 
BRANCH   5   8
ATOM      8  O   UNL     1     115.903 131.925  96.389  1.00  0.00    -0.508 OA
ATOM      9  H   UNL     1     115.069 132.344  96.122  1.00  0.00     0.293 HD
ENDBRANCH   5   8
ENDBRANCH   1   2
BRANCH   1  10
ATOM     10  C   UNL     1     116.089 125.859  98.566  1.00  0.00     0.082 C 
BRANCH  10  11
ATOM     11  N   UNL     1     116.823 126.058  99.817  1.00  0.00    -0.330 NA
ATOM     12  H   UNL     1     117.767 125.685  99.702  1.00  0.00     0.118 HD
ATOM     13  H   UNL     1     116.943 127.056  99.987  1.00  0.00     0.118 HD
ENDBRANCH  10  11
ENDBRANCH   1  10
TORSDOF 4
ENDMDL
MODEL 4
REMARK VINA RESULT:    -5.243      3.392      3.976
REMARK INTER + INTRA:          -6.241
REMARK INTER:                  -6.148
REMARK INTRA:                  -0.093
REMARK UNBOUND:                -0.078
REMARK SMILES NCCc1ccc(O)cc1
REMARK SMILES IDX 3 1 4 2 5 3 6 4 7 5 10 6 9 7 8 8 2 10 1 11
REMARK H PARENT 8 9 1 12 1 13
ROOT
ATOM      1  C   UNL     1     112.525 125.611  95.912  1.00  0.00     0.050 C 
ENDROOT
BRANCH   1   2
ATOM      2  C   UNL     1     113.577 125.834  96.973  1.00  0.00    -0.046 A 
ATOM      3  C   UNL     1     114.910 125.460  96.745  1.00  0.00     0.007 A 
ATOM      4  C   UNL     1     115.885 125.675  97.722  1.00  0.00     0.046 A 
ATOM      5  C   UNL     1     115.526 126.263  98.930  1.00  0.00     0.115 A 
ATOM      6  C   UNL     1     113.238 126.425  98.199  1.00  0.00     0.007 A 
ATOM      7  C   UNL     1     114.211 126.639  99.175  1.00  0.00     0.046 A 
BRANCH   5   8
ATOM      8  O   UNL     1     116.446 126.491  99.911  1.00  0.00    -0.508 OA
ATOM      9  H   UNL     1     116.903 127.326  99.719  1.00  0.00     0.293 HD
ENDBRANCH   5   8
ENDBRANCH   1   2
BRANCH   1  10
ATOM     10  C   UNL     1     112.328 124.135  95.532  1.00  0.00     0.082 C 
BRANCH  10  11
ATOM     11  N   UNL     1     111.564 123.375  96.522  1.00  0.00    -0.330 NA
ATOM     12  H   UNL     1     110.893 124.004  96.968  1.00  0.00     0.118 HD
ATOM     13  H   UNL     1     111.001 122.668  96.050  1.00  0.00     0.118 HD
ENDBRANCH  10  11
ENDBRANCH   1  10
TORSDOF 4
ENDMDL
MODEL 5
REMARK VINA RESULT:    -5.221      1.822      2.522
REMARK INTER + INTRA:          -6.216
REMARK INTER:                  -6.155
REMARK INTRA:                  -0.061
REMARK UNBOUND:                -0.078
REMARK SMILES NCCc1ccc(O)cc1
REMARK SMILES IDX 3 1 4 2 5 3 6 4 7 5 10 6 9 7 8 8 2 10 1 11
REMARK H PARENT 8 9 1 12 1 13
ROOT
ATOM      1  C   UNL     1     114.421 125.657  96.216  1.00  0.00     0.050 C 
ENDROOT
BRANCH   1   2
ATOM      2  C   UNL     1     114.817 126.826  97.088  1.00  0.00    -0.046 A 
ATOM      3  C   UNL     1     114.376 128.124  96.785  1.00  0.00     0.007 A 
ATOM      4  C   UNL     1     114.734 129.203  97.596  1.00  0.00     0.046 A 
ATOM      5  C   UNL     1     115.536 128.985  98.710  1.00  0.00     0.115 A 
ATOM      6  C   UNL     1     115.627 126.631  98.216  1.00  0.00     0.007 A 
ATOM      7  C   UNL     1     115.985 127.709  99.025  1.00  0.00     0.046 A 
BRANCH   5   8
ATOM      8  O   UNL     1     115.909 130.011  99.529  1.00  0.00    -0.508 OA
ATOM      9  H   UNL     1     116.401 130.663  99.003  1.00  0.00     0.293 HD
ENDBRANCH   5   8
ENDBRANCH   1   2
BRANCH   1  10
ATOM     10  C   UNL     1     112.903 125.464  96.085  1.00  0.00     0.082 C 
BRANCH  10  11
ATOM     11  N   UNL     1     112.386 124.351  96.882  1.00  0.00    -0.330 NA
ATOM     12  H   UNL     1     111.877 123.717  96.263  1.00  0.00     0.118 HD
ATOM     13  H   UNL     1     113.163 123.805  97.251  1.00  0.00     0.118 HD
ENDBRANCH  10  11
ENDBRANCH   1  10
TORSDOF 4
ENDMDL
MODEL 6
REMARK VINA RESULT:    -5.198      3.474      4.613
REMARK INTER + INTRA:          -6.188
REMARK INTER:                  -6.107
REMARK INTRA:                  -0.082
REMARK UNBOUND:                -0.078
REMARK SMILES NCCc1ccc(O)cc1
REMARK SMILES IDX 3 1 4 2 5 3 6 4 7 5 10 6 9 7 8 8 2 10 1 11
REMARK H PARENT 8 9 1 12 1 13
ROOT
ATOM      1  C   UNL     1     114.152 129.674  96.975  1.00  0.00     0.050 C 
ENDROOT
BRANCH   1   2
ATOM      2  C   UNL     1     114.757 128.343  97.358  1.00  0.00    -0.046 A 
ATOM      3  C   UNL     1     114.458 127.186  96.623  1.00  0.00     0.007 A 
ATOM      4  C   UNL     1     115.024 125.957  96.971  1.00  0.00     0.046 A 
ATOM      5  C   UNL     1     115.890 125.885  98.057  1.00  0.00     0.115 A 
ATOM      6  C   UNL     1     115.632 128.247  98.450  1.00  0.00     0.007 A 
ATOM      7  C   UNL     1     116.197 127.020  98.798  1.00  0.00     0.046 A 
BRANCH   5   8
ATOM      8  O   UNL     1     116.465 124.706  98.431  1.00  0.00    -0.508 OA
ATOM      9  H   UNL     1     117.317 124.899  98.855  1.00  0.00     0.293 HD
ENDBRANCH   5   8
ENDBRANCH   1   2
BRANCH   1  10
ATOM     10  C   UNL     1     114.911 130.887  97.535  1.00  0.00     0.082 C 
BRANCH  10  11
ATOM     11  N   UNL     1     115.880 131.452  96.596  1.00  0.00    -0.330 NA
ATOM     12  H   UNL     1     116.738 131.673  97.107  1.00  0.00     0.118 HD
ATOM     13  H   UNL     1     116.146 130.745  95.912  1.00  0.00     0.118 HD
ENDBRANCH  10  11
ENDBRANCH   1  10
TORSDOF 4
ENDMDL
MODEL 7
REMARK VINA RESULT:    -5.167      2.391      3.084
REMARK INTER + INTRA:          -6.152
REMARK INTER:                  -6.071
REMARK INTRA:                  -0.081
REMARK UNBOUND:                -0.078
REMARK SMILES NCCc1ccc(O)cc1
REMARK SMILES IDX 3 1 4 2 5 3 6 4 7 5 10 6 9 7 8 8 2 10 1 11
REMARK H PARENT 8 9 1 12 1 13
ROOT
ATOM      1  C   UNL     1     115.995 128.562  98.488  1.00  0.00     0.050 C 
ENDROOT
BRANCH   1   2
ATOM      2  C   UNL     1     114.806 129.346  97.984  1.00  0.00    -0.046 A 
ATOM      3  C   UNL     1     113.868 128.749  97.128  1.00  0.00     0.007 A 
ATOM      4  C   UNL     1     112.764 129.471  96.669  1.00  0.00     0.046 A 
ATOM      5  C   UNL     1     112.598 130.793  97.066  1.00  0.00     0.115 A 
ATOM      6  C   UNL     1     114.619 130.682  98.370  1.00  0.00     0.007 A 
ATOM      7  C   UNL     1     113.516 131.403  97.911  1.00  0.00     0.046 A 
BRANCH   5   8
ATOM      8  O   UNL     1     111.534 131.535  96.641  1.00  0.00    -0.508 OA
ATOM      9  H   UNL     1     111.697 132.465  96.866  1.00  0.00     0.293 HD
ENDBRANCH   5   8
ENDBRANCH   1   2
BRANCH   1  10
ATOM     10  C   UNL     1     115.704 127.072  98.720  1.00  0.00     0.082 C 
BRANCH  10  11
ATOM     11  N   UNL     1     115.281 126.765 100.087  1.00  0.00    -0.330 NA
ATOM     12  H   UNL     1     115.112 125.760 100.157  1.00  0.00     0.118 HD
ATOM     13  H   UNL     1     116.046 126.958 100.732  1.00  0.00     0.118 HD
ENDBRANCH  10  11
ENDBRANCH   1  10
TORSDOF 4
ENDMDL
MODEL 8
REMARK VINA RESULT:    -5.039      3.369      4.546
REMARK INTER + INTRA:          -6.001
REMARK INTER:                  -5.901
REMARK INTRA:                  -0.100
REMARK UNBOUND:                -0.078
REMARK SMILES NCCc1ccc(O)cc1
REMARK SMILES IDX 3 1 4 2 5 3 6 4 7 5 10 6 9 7 8 8 2 10 1 11
REMARK H PARENT 8 9 1 12 1 13
ROOT
ATOM      1  C   UNL     1     115.256 128.033  97.889  1.00  0.00     0.050 C 
ENDROOT
BRANCH   1   2
ATOM      2  C   UNL     1     114.195 127.228  97.176  1.00  0.00    -0.046 A 
ATOM      3  C   UNL     1     112.870 127.685  97.120  1.00  0.00     0.007 A 
ATOM      4  C   UNL     1     111.891 126.945  96.453  1.00  0.00     0.046 A 
ATOM      5  C   UNL     1     112.237 125.745  95.842  1.00  0.00     0.115 A 
ATOM      6  C   UNL     1     114.521 126.013  96.554  1.00  0.00     0.007 A 
ATOM      7  C   UNL     1     113.543 125.275  95.888  1.00  0.00     0.046 A 
BRANCH   5   8
ATOM      8  O   UNL     1     111.312 124.991  95.181  1.00  0.00    -0.508 OA
ATOM      9  H   UNL     1     110.850 125.559  94.542  1.00  0.00     0.293 HD
ENDBRANCH   5   8
ENDBRANCH   1   2
BRANCH   1  10
ATOM     10  C   UNL     1     116.023 127.242  98.960  1.00  0.00     0.082 C 
BRANCH  10  11
ATOM     11  N   UNL     1     115.181 126.794 100.069  1.00  0.00    -0.330 NA
ATOM     12  H   UNL     1     115.590 127.128 100.944  1.00  0.00     0.118 HD
ATOM     13  H   UNL     1     114.268 127.243 100.008  1.00  0.00     0.118 HD
ENDBRANCH  10  11
ENDBRANCH   1  10
TORSDOF 4
ENDMDL
MODEL 9
REMARK VINA RESULT:    -5.008      3.635      4.801
REMARK INTER + INTRA:          -5.964
REMARK INTER:                  -5.923
REMARK INTRA:                  -0.041
REMARK UNBOUND:                -0.078
REMARK SMILES NCCc1ccc(O)cc1
REMARK SMILES IDX 3 1 4 2 5 3 6 4 7 5 10 6 9 7 8 8 2 10 1 11
REMARK H PARENT 8 9 1 12 1 13
ROOT
ATOM      1  C   UNL     1     114.942 129.230  96.840  1.00  0.00     0.050 C 
ENDROOT
BRANCH   1   2
ATOM      2  C   UNL     1     114.047 128.024  96.679  1.00  0.00    -0.046 A 
ATOM      3  C   UNL     1     114.593 126.732  96.627  1.00  0.00     0.007 A 
ATOM      4  C   UNL     1     113.765 125.616  96.487  1.00  0.00     0.046 A 
ATOM      5  C   UNL     1     112.388 125.792  96.398  1.00  0.00     0.115 A 
ATOM      6  C   UNL     1     112.656 128.177  96.585  1.00  0.00     0.007 A 
ATOM      7  C   UNL     1     111.829 127.062  96.445  1.00  0.00     0.046 A 
BRANCH   5   8
ATOM      8  O   UNL     1     111.544 124.729  96.261  1.00  0.00    -0.508 OA
ATOM      9  H   UNL     1     111.393 124.339  97.137  1.00  0.00     0.293 HD
ENDBRANCH   5   8
ENDBRANCH   1   2
BRANCH   1  10
ATOM     10  C   UNL     1     115.703 129.268  98.174  1.00  0.00     0.082 C 
BRANCH  10  11
ATOM     11  N   UNL     1     116.491 130.486  98.362  1.00  0.00    -0.330 NA
ATOM     12  H   UNL     1     116.776 130.541  99.342  1.00  0.00     0.118 HD
ATOM     13  H   UNL     1     117.358 130.417  97.831  1.00  0.00     0.118 HD
ENDBRANCH  10  11
ENDBRANCH   1  10
TORSDOF 4
ENDMDL
