MODEL 1
REMARK VINA RESULT:    -5.668      0.000      0.000
REMARK INTER + INTRA:          -6.721
REMARK INTER:                  -6.662
REMARK INTRA:                  -0.059
REMARK UNBOUND:                -0.059
REMARK SMILES NCCc1ccc(O)cc1
REMARK SMILES IDX 3 1 4 2 5 3 6 4 7 5 10 6 9 7 8 8 2 10 1 11
REMARK H PARENT 8 9 1 12 1 13
ROOT
ATOM      1  C   UNL     1       6.625   4.382  -5.864  1.00  0.00     0.050 C 
ENDROOT
BRANCH   1   2
ATOM      2  C   UNL     1       8.027   4.782  -5.464  1.00  0.00    -0.046 A 
ATOM      3  C   UNL     1       9.133   4.341  -6.206  1.00  0.00     0.007 A 
ATOM      4  C   UNL     1      10.428   4.718  -5.843  1.00  0.00     0.046 A 
ATOM      5  C   UNL     1      10.617   5.536  -4.734  1.00  0.00     0.115 A 
ATOM      6  C   UNL     1       8.242   5.605  -4.349  1.00  0.00     0.007 A 
ATOM      7  C   UNL     1       9.535   5.981  -3.986  1.00  0.00     0.046 A 
BRANCH   5   8
ATOM      8  O   UNL     1      11.864   5.927  -4.345  1.00  0.00    -0.508 OA
ATOM      9  H   UNL     1      11.775   6.562  -3.615  1.00  0.00     0.293 HD
ENDBRANCH   5   8
ENDBRANCH   1   2
BRANCH   1  10
ATOM     10  C   UNL     1       6.359   4.471  -7.374  1.00  0.00     0.082 C 
BRANCH  10  11
ATOM     11  N   UNL     1       6.305   3.167  -8.035  1.00  0.00    -0.330 NA
ATOM     12  H   UNL     1       7.111   3.084  -8.657  1.00  0.00     0.118 HD
ATOM     13  H   UNL     1       6.420   2.428  -7.342  1.00  0.00     0.118 HD
ENDBRANCH  10  11
ENDBRANCH   1  10
TORSDOF 4
ENDMDL
MODEL 2
REMARK VINA RESULT:    -5.617      3.449      4.590
REMARK INTER + INTRA:          -6.662
REMARK INTER:                  -6.615
REMARK INTRA:                  -0.047
REMARK UNBOUND:                -0.059
REMARK SMILES NCCc1ccc(O)cc1
REMARK SMILES IDX 3 1 4 2 5 3 6 4 7 5 10 6 9 7 8 8 2 10 1 11
REMARK H PARENT 8 9 1 12 1 13
ROOT
ATOM      1  C   UNL     1      10.356   4.513  -5.662  1.00  0.00     0.050 C 
ENDROOT
BRANCH   1   2
ATOM      2  C   UNL     1       8.925   4.488  -6.148  1.00  0.00    -0.046 A 
ATOM      3  C   UNL     1       8.629   4.156  -7.479  1.00  0.00     0.007 A 
ATOM      4  C   UNL     1       7.307   4.124  -7.926  1.00  0.00     0.046 A 
ATOM      5  C   UNL     1       6.277   4.426  -7.041  1.00  0.00     0.115 A 
ATOM      6  C   UNL     1       7.871   4.791  -5.273  1.00  0.00     0.007 A 
ATOM      7  C   UNL     1       6.550   4.759  -5.720  1.00  0.00     0.046 A 
BRANCH   5   8
ATOM      8  O   UNL     1       4.972   4.407  -7.436  1.00  0.00    -0.508 OA
ATOM      9  H   UNL     1       4.674   5.322  -7.565  1.00  0.00     0.293 HD
ENDBRANCH   5   8
ENDBRANCH   1   2
BRANCH   1  10
ATOM     10  C   UNL     1      10.917   5.928  -5.452  1.00  0.00     0.082 C 
BRANCH  10  11
ATOM     11  N   UNL     1      11.839   6.028  -4.320  1.00  0.00    -0.330 NA
ATOM     12  H   UNL     1      12.480   6.806  -4.491  1.00  0.00     0.118 HD
ATOM     13  H   UNL     1      11.321   6.282  -3.480  1.00  0.00     0.118 HD
ENDBRANCH  10  11
ENDBRANCH   1  10
TORSDOF 4
ENDMDL
MODEL 3
REMARK VINA RESULT:    -5.295      3.581      4.724
REMARK INTER + INTRA:          -6.283
REMARK INTER:                  -6.215
REMARK INTRA:                  -0.067
REMARK UNBOUND:                -0.059
REMARK SMILES NCCc1ccc(O)cc1
REMARK SMILES IDX 3 1 4 2 5 3 6 4 7 5 10 6 9 7 8 8 2 10 1 11
REMARK H PARENT 8 9 1 12 1 13
ROOT
ATOM      1  C   UNL     1      10.168   4.265  -5.228  1.00  0.00     0.050 C 
ENDROOT
BRANCH   1   2
ATOM      2  C   UNL     1       9.619   4.564  -6.604  1.00  0.00    -0.046 A 
ATOM      3  C   UNL     1       8.276   4.297  -6.910  1.00  0.00     0.007 A 
ATOM      4  C   UNL     1       7.766   4.582  -8.179  1.00  0.00     0.046 A 
ATOM      5  C   UNL     1       8.601   5.134  -9.144  1.00  0.00     0.115 A 
ATOM      6  C   UNL     1      10.444   5.120  -7.594  1.00  0.00     0.007 A 
ATOM      7  C   UNL     1       9.934   5.404  -8.860  1.00  0.00     0.046 A 
BRANCH   5   8
ATOM      8  O   UNL     1       8.145   5.428 -10.395  1.00  0.00    -0.508 OA
ATOM      9  H   UNL     1       7.470   6.122 -10.323  1.00  0.00     0.293 HD
ENDBRANCH   5   8
ENDBRANCH   1   2
BRANCH   1  10
ATOM     10  C   UNL     1      10.405   5.515  -4.367  1.00  0.00     0.082 C 
BRANCH  10  11
ATOM     11  N   UNL     1      11.808   5.927  -4.313  1.00  0.00    -0.330 NA
ATOM     12  H   UNL     1      12.015   6.251  -3.366  1.00  0.00     0.118 HD
ATOM     13  H   UNL     1      12.409   5.117  -4.460  1.00  0.00     0.118 HD
ENDBRANCH  10  11
ENDBRANCH   1  10
TORSDOF 4
ENDMDL
MODEL 4
REMARK VINA RESULT:    -5.279      3.619      4.665
REMARK INTER + INTRA:          -6.263
REMARK INTER:                  -6.194
REMARK INTRA:                  -0.070
REMARK UNBOUND:                -0.059
REMARK SMILES NCCc1ccc(O)cc1
REMARK SMILES IDX 3 1 4 2 5 3 6 4 7 5 10 6 9 7 8 8 2 10 1 11
REMARK H PARENT 8 9 1 12 1 13
ROOT
ATOM      1  C   UNL     1      10.184   4.270  -5.300  1.00  0.00     0.050 C 
ENDROOT
BRANCH   1   2
ATOM      2  C   UNL     1       9.656   4.589  -6.679  1.00  0.00    -0.046 A 
ATOM      3  C   UNL     1      10.497   5.146  -7.654  1.00  0.00     0.007 A 
ATOM      4  C   UNL     1      10.011   5.432  -8.932  1.00  0.00     0.046 A 
ATOM      5  C   UNL     1       8.681   5.163  -9.235  1.00  0.00     0.115 A 
ATOM      6  C   UNL     1       8.317   4.327  -7.007  1.00  0.00     0.007 A 
ATOM      7  C   UNL     1       7.832   4.613  -8.283  1.00  0.00     0.046 A 
BRANCH   5   8
ATOM      8  O   UNL     1       8.165   5.427 -10.470  1.00  0.00    -0.508 OA
ATOM      9  H   UNL     1       7.588   4.690 -10.728  1.00  0.00     0.293 HD
ENDBRANCH   5   8
ENDBRANCH   1   2
BRANCH   1  10
ATOM     10  C   UNL     1      10.425   5.509  -4.424  1.00  0.00     0.082 C 
BRANCH  10  11
ATOM     11  N   UNL     1      11.835   5.887  -4.323  1.00  0.00    -0.330 NA
ATOM     12  H   UNL     1      11.901   6.906  -4.342  1.00  0.00     0.118 HD
ATOM     13  H   UNL     1      12.199   5.608  -3.413  1.00  0.00     0.118 HD
ENDBRANCH  10  11
ENDBRANCH   1  10
TORSDOF 4
ENDMDL
MODEL 5
REMARK VINA RESULT:    -5.083      2.233      2.883
REMARK INTER + INTRA:          -6.033
REMARK INTER:                  -5.936
REMARK INTRA:                  -0.097
REMARK UNBOUND:                -0.059
REMARK SMILES NCCc1ccc(O)cc1
REMARK SMILES IDX 3 1 4 2 5 3 6 4 7 5 10 6 9 7 8 8 2 10 1 11
REMARK H PARENT 8 9 1 12 1 13
ROOT
ATOM      1  C   UNL     1       9.390   4.209  -8.924  1.00  0.00     0.050 C 
ENDROOT
BRANCH   1   2
ATOM      2  C   UNL     1       9.503   4.695  -7.498  1.00  0.00    -0.046 A 
ATOM      3  C   UNL     1       8.487   4.422  -6.569  1.00  0.00     0.007 A 
ATOM      4  C   UNL     1       8.595   4.862  -5.248  1.00  0.00     0.046 A 
ATOM      5  C   UNL     1       9.720   5.579  -4.855  1.00  0.00     0.115 A 
ATOM      6  C   UNL     1      10.628   5.421  -7.080  1.00  0.00     0.007 A 
ATOM      7  C   UNL     1      10.736   5.861  -5.761  1.00  0.00     0.046 A 
BRANCH   5   8
ATOM      8  O   UNL     1       9.866   6.028  -3.575  1.00  0.00    -0.508 OA
ATOM      9  H   UNL     1       9.937   5.261  -2.985  1.00  0.00     0.293 HD
ENDBRANCH   5   8
ENDBRANCH   1   2
BRANCH   1  10
ATOM     10  C   UNL     1       9.374   5.338  -9.966  1.00  0.00     0.082 C 
BRANCH  10  11
ATOM     11  N   UNL     1       8.122   6.096  -9.987  1.00  0.00    -0.330 NA
ATOM     12  H   UNL     1       7.950   6.464  -9.049  1.00  0.00     0.118 HD
ATOM     13  H   UNL     1       8.228   6.914 -10.585  1.00  0.00     0.118 HD
ENDBRANCH  10  11
ENDBRANCH   1  10
TORSDOF 4
ENDMDL
MODEL 6
REMARK VINA RESULT:    -5.058      2.165      2.551
REMARK INTER + INTRA:          -6.004
REMARK INTER:                  -5.908
REMARK INTRA:                  -0.097
REMARK UNBOUND:                -0.059
REMARK SMILES NCCc1ccc(O)cc1
REMARK SMILES IDX 3 1 4 2 5 3 6 4 7 5 10 6 9 7 8 8 2 10 1 11
REMARK H PARENT 8 9 1 12 1 13
ROOT
ATOM      1  C   UNL     1       8.736   4.040  -8.727  1.00  0.00     0.050 C 
ENDROOT
BRANCH   1   2
ATOM      2  C   UNL     1       9.043   4.571  -7.345  1.00  0.00    -0.046 A 
ATOM      3  C   UNL     1      10.304   5.112  -7.053  1.00  0.00     0.007 A 
ATOM      4  C   UNL     1      10.584   5.611  -5.778  1.00  0.00     0.046 A 
ATOM      5  C   UNL     1       9.602   5.567  -4.795  1.00  0.00     0.115 A 
ATOM      6  C   UNL     1       8.068   4.535  -6.337  1.00  0.00     0.007 A 
ATOM      7  C   UNL     1       8.348   5.033  -5.065  1.00  0.00     0.046 A 
BRANCH   5   8
ATOM      8  O   UNL     1       9.834   6.043  -3.538  1.00  0.00    -0.508 OA
ATOM      9  H   UNL     1       9.025   5.933  -3.012  1.00  0.00     0.293 HD
ENDBRANCH   5   8
ENDBRANCH   1   2
BRANCH   1  10
ATOM     10  C   UNL     1       9.074   5.021  -9.859  1.00  0.00     0.082 C 
BRANCH  10  11
ATOM     11  N   UNL     1       8.134   6.138  -9.963  1.00  0.00    -0.330 NA
ATOM     12  H   UNL     1       8.275   6.599 -10.864  1.00  0.00     0.118 HD
ATOM     13  H   UNL     1       7.180   5.781  -9.987  1.00  0.00     0.118 HD
ENDBRANCH  10  11
ENDBRANCH   1  10
TORSDOF 4
ENDMDL
MODEL 7
REMARK VINA RESULT:    -4.897      2.521      3.512
REMARK INTER + INTRA:          -5.815
REMARK INTER:                  -5.743
REMARK INTRA:                  -0.072
REMARK UNBOUND:                -0.059
REMARK SMILES NCCc1ccc(O)cc1
REMARK SMILES IDX 3 1 4 2 5 3 6 4 7 5 10 6 9 7 8 8 2 10 1 11
REMARK H PARENT 8 9 1 12 1 13
ROOT
ATOM      1  C   UNL     1       9.936   4.005  -7.448  1.00  0.00     0.050 C 
ENDROOT
BRANCH   1   2
ATOM      2  C   UNL     1       8.936   4.495  -6.427  1.00  0.00    -0.046 A 
ATOM      3  C   UNL     1       9.364   5.183  -5.282  1.00  0.00     0.007 A 
ATOM      4  C   UNL     1       8.439   5.644  -4.342  1.00  0.00     0.046 A 
ATOM      5  C   UNL     1       7.083   5.416  -4.548  1.00  0.00     0.115 A 
ATOM      6  C   UNL     1       7.563   4.275  -6.614  1.00  0.00     0.007 A 
ATOM      7  C   UNL     1       6.639   4.735  -5.675  1.00  0.00     0.046 A 
BRANCH   5   8
ATOM      8  O   UNL     1       6.146   5.849  -3.656  1.00  0.00    -0.508 OA
ATOM      9  H   UNL     1       5.390   6.206  -4.151  1.00  0.00     0.293 HD
ENDBRANCH   5   8
ENDBRANCH   1   2
BRANCH   1  10
ATOM     10  C   UNL     1      10.318   5.057  -8.500  1.00  0.00     0.082 C 
BRANCH  10  11
ATOM     11  N   UNL     1       9.438   5.059  -9.669  1.00  0.00    -0.330 NA
ATOM     12  H   UNL     1       9.283   6.027  -9.958  1.00  0.00     0.118 HD
ATOM     13  H   UNL     1       9.912   4.614 -10.454  1.00  0.00     0.118 HD
ENDBRANCH  10  11
ENDBRANCH   1  10
TORSDOF 4
ENDMDL
MODEL 8
REMARK VINA RESULT:    -4.828      2.768      3.512
REMARK INTER + INTRA:          -5.733
REMARK INTER:                  -5.684
REMARK INTRA:                  -0.049
REMARK UNBOUND:                -0.059
REMARK SMILES NCCc1ccc(O)cc1
REMARK SMILES IDX 3 1 4 2 5 3 6 4 7 5 10 6 9 7 8 8 2 10 1 11
REMARK H PARENT 8 9 1 12 1 13
ROOT
ATOM      1  C   UNL     1       6.599   4.651  -5.470  1.00  0.00     0.050 C 
ENDROOT
BRANCH   1   2
ATOM      2  C   UNL     1       7.694   4.481  -6.496  1.00  0.00    -0.046 A 
ATOM      3  C   UNL     1       7.384   4.392  -7.862  1.00  0.00     0.007 A 
ATOM      4  C   UNL     1       8.397   4.244  -8.812  1.00  0.00     0.046 A 
ATOM      5  C   UNL     1       9.723   4.183  -8.396  1.00  0.00     0.115 A 
ATOM      6  C   UNL     1       9.038   4.416  -6.100  1.00  0.00     0.007 A 
ATOM      7  C   UNL     1      10.049   4.268  -7.049  1.00  0.00     0.046 A 
BRANCH   5   8
ATOM      8  O   UNL     1      10.742   4.039  -9.291  1.00  0.00    -0.508 OA
ATOM      9  H   UNL     1      10.464   4.416 -10.141  1.00  0.00     0.293 HD
ENDBRANCH   5   8
ENDBRANCH   1   2
BRANCH   1  10
ATOM     10  C   UNL     1       6.989   5.550  -4.286  1.00  0.00     0.082 C 
BRANCH  10  11
ATOM     11  N   UNL     1       5.839   6.087  -3.558  1.00  0.00    -0.330 NA
ATOM     12  H   UNL     1       6.169   6.481  -2.674  1.00  0.00     0.118 HD
ATOM     13  H   UNL     1       5.444   6.872  -4.074  1.00  0.00     0.118 HD
ENDBRANCH  10  11
ENDBRANCH   1  10
TORSDOF 4
ENDMDL
MODEL 9
REMARK VINA RESULT:    -4.455      3.218      4.234
REMARK INTER + INTRA:          -5.295
REMARK INTER:                  -5.214
REMARK INTRA:                  -0.081
REMARK UNBOUND:                -0.059
REMARK SMILES NCCc1ccc(O)cc1
REMARK SMILES IDX 3 1 4 2 5 3 6 4 7 5 10 6 9 7 8 8 2 10 1 11
REMARK H PARENT 8 9 1 12 1 13
ROOT
ATOM      1  C   UNL     1      10.699   4.311  -9.281  1.00  0.00     0.050 C 
ENDROOT
BRANCH   1   2
ATOM      2  C   UNL     1       9.610   4.369  -8.236  1.00  0.00    -0.046 A 
ATOM      3  C   UNL     1       9.933   4.444  -6.872  1.00  0.00     0.007 A 
ATOM      4  C   UNL     1       8.927   4.506  -5.906  1.00  0.00     0.046 A 
ATOM      5  C   UNL     1       7.594   4.492  -6.303  1.00  0.00     0.115 A 
ATOM      6  C   UNL     1       8.259   4.355  -8.613  1.00  0.00     0.007 A 
ATOM      7  C   UNL     1       7.254   4.417  -7.648  1.00  0.00     0.046 A 
BRANCH   5   8
ATOM      8  O   UNL     1       6.580   4.552  -5.393  1.00  0.00    -0.508 OA
ATOM      9  H   UNL     1       6.424   3.659  -5.046  1.00  0.00     0.293 HD
ENDBRANCH   5   8
ENDBRANCH   1   2
BRANCH   1  10
ATOM     10  C   UNL     1      10.206   3.881 -10.671  1.00  0.00     0.082 C 
BRANCH  10  11
ATOM     11  N   UNL     1      10.503   2.483 -10.988  1.00  0.00    -0.330 NA
ATOM     12  H   UNL     1      10.226   1.904 -10.193  1.00  0.00     0.118 HD
ATOM     13  H   UNL     1       9.917   2.177 -11.764  1.00  0.00     0.118 HD
ENDBRANCH  10  11
ENDBRANCH   1  10
TORSDOF 4
ENDMDL
