MODEL 1
REMARK VINA RESULT:    -8.546      0.000      0.000
REMARK INTER + INTRA:         -12.272
REMARK INTER:                 -11.544
REMARK INTRA:                  -0.729
REMARK UNBOUND:                -0.729
REMARK SMILES O=C(CN1CCCC1)c1ccc(N2CCN(Cc3ccccc3)CC2)cc1
REMARK SMILES IDX 9 1 10 2 11 3 12 4 26 5 27 6 2 7 1 8 3 9 4 10 5 11 8 12 6 13
REMARK SMILES IDX 7 14 13 15 14 16 25 17 15 18 24 19 16 20 17 21 18 22 19 23
REMARK SMILES IDX 23 24 20 25 22 26 21 27
REMARK H PARENT
ROOT
ATOM      1  C   UNL     1      -9.833   2.636  15.289  1.00  0.00     0.019 A 
ATOM      2  C   UNL     1     -10.346   1.449  14.761  1.00  0.00     0.014 A 
ATOM      3  C   UNL     1      -9.939   0.993  13.499  1.00  0.00     0.026 A 
ATOM      4  C   UNL     1      -9.016   1.699  12.714  1.00  0.00     0.037 A 
ATOM      5  C   UNL     1      -8.513   2.888  13.268  1.00  0.00     0.026 A 
ATOM      6  C   UNL     1      -8.909   3.356  14.530  1.00  0.00     0.014 A 
ENDROOT
BRANCH   1   7
ATOM      7  C   UNL     1     -10.295   3.079  16.644  1.00  0.00     0.176 C 
ATOM      8  O   UNL     1      -9.890   2.455  17.625  1.00  0.00    -0.293 OA
BRANCH   7   9
ATOM      9  C   UNL     1     -11.248   4.278  16.714  1.00  0.00     0.165 C 
BRANCH   9  10
ATOM     10  N   UNL     1     -12.382   4.268  15.781  1.00  0.00    -0.296 NA
ATOM     11  C   UNL     1     -13.414   3.274  16.058  1.00  0.00     0.085 C 
ATOM     12  C   UNL     1     -13.064   5.545  15.605  1.00  0.00     0.085 C 
ATOM     13  C   UNL     1     -14.602   3.733  15.219  1.00  0.00     0.017 C 
ATOM     14  C   UNL     1     -14.254   5.141  14.752  1.00  0.00     0.017 C 
ENDBRANCH   9  10
ENDBRANCH   7   9
ENDBRANCH   1   7
BRANCH   4  15
ATOM     15  N   UNL     1      -8.609   1.247  11.472  1.00  0.00    -0.369 N 
ATOM     16  C   UNL     1      -7.185   1.019  11.164  1.00  0.00     0.132 C 
ATOM     17  C   UNL     1      -9.545   1.131  10.340  1.00  0.00     0.132 C 
ATOM     18  C   UNL     1      -6.892   1.277   9.665  1.00  0.00     0.106 C 
ATOM     19  C   UNL     1      -9.016   0.129   9.286  1.00  0.00     0.106 C 
ATOM     20  N   UNL     1      -7.674   0.423   8.758  1.00  0.00    -0.296 NA
BRANCH  20  21
ATOM     21  C   UNL     1      -7.630   0.833   7.351  1.00  0.00     0.120 C 
BRANCH  21  22
ATOM     22  C   UNL     1      -6.788  -0.010   6.413  1.00  0.00    -0.034 A 
ATOM     23  C   UNL     1      -5.895  -0.970   6.913  1.00  0.00     0.005 A 
ATOM     24  C   UNL     1      -6.871   0.168   5.023  1.00  0.00     0.005 A 
ATOM     25  C   UNL     1      -5.121  -1.745   6.046  1.00  0.00     0.000 A 
ATOM     26  C   UNL     1      -6.096  -0.607   4.157  1.00  0.00     0.000 A 
ATOM     27  C   UNL     1      -5.225  -1.566   4.669  1.00  0.00     0.000 A 
ENDBRANCH  21  22
ENDBRANCH  20  21
ENDBRANCH   4  15
TORSDOF 6
ENDMDL
MODEL 2
REMARK VINA RESULT:    -8.433      0.773      1.788
REMARK INTER + INTRA:         -12.120
REMARK INTER:                 -11.522
REMARK INTRA:                  -0.598
REMARK UNBOUND:                -0.729
REMARK SMILES O=C(CN1CCCC1)c1ccc(N2CCN(Cc3ccccc3)CC2)cc1
REMARK SMILES IDX 9 1 10 2 11 3 12 4 26 5 27 6 2 7 1 8 3 9 4 10 5 11 8 12 6 13
REMARK SMILES IDX 7 14 13 15 14 16 25 17 15 18 24 19 16 20 17 21 18 22 19 23
REMARK SMILES IDX 23 24 20 25 22 26 21 27
REMARK H PARENT
ROOT
ATOM      1  C   UNL     1     -10.281   2.496  15.395  1.00  0.00     0.019 A 
ATOM      2  C   UNL     1      -9.398   3.328  14.702  1.00  0.00     0.014 A 
ATOM      3  C   UNL     1      -8.778   2.890  13.524  1.00  0.00     0.026 A 
ATOM      4  C   UNL     1      -9.008   1.613  12.992  1.00  0.00     0.037 A 
ATOM      5  C   UNL     1      -9.901   0.796  13.704  1.00  0.00     0.026 A 
ATOM      6  C   UNL     1     -10.530   1.221  14.885  1.00  0.00     0.014 A 
ENDROOT
BRANCH   1   7
ATOM      7  C   UNL     1     -10.922   3.011  16.648  1.00  0.00     0.176 C 
ATOM      8  O   UNL     1     -10.187   3.444  17.536  1.00  0.00    -0.293 OA
BRANCH   7   9
ATOM      9  C   UNL     1     -12.452   2.958  16.738  1.00  0.00     0.165 C 
BRANCH   9  10
ATOM     10  N   UNL     1     -13.195   3.632  15.666  1.00  0.00    -0.296 NA
ATOM     11  C   UNL     1     -14.577   3.200  15.493  1.00  0.00     0.085 C 
ATOM     12  C   UNL     1     -13.214   5.088  15.733  1.00  0.00     0.085 C 
ATOM     13  C   UNL     1     -15.199   4.291  14.627  1.00  0.00     0.017 C 
ATOM     14  C   UNL     1     -14.190   5.433  14.621  1.00  0.00     0.017 C 
ENDBRANCH   9  10
ENDBRANCH   7   9
ENDBRANCH   1   7
BRANCH   4  15
ATOM     15  N   UNL     1      -8.402   1.182  11.825  1.00  0.00    -0.369 N 
ATOM     16  C   UNL     1      -8.919   1.574  10.500  1.00  0.00     0.132 C 
ATOM     17  C   UNL     1      -7.322   0.180  11.831  1.00  0.00     0.132 C 
ATOM     18  C   UNL     1      -8.649   0.468   9.450  1.00  0.00     0.106 C 
ATOM     19  C   UNL     1      -6.472   0.277  10.542  1.00  0.00     0.106 C 
ATOM     20  N   UNL     1      -7.223   0.151   9.283  1.00  0.00    -0.296 NA
BRANCH  20  21
ATOM     21  C   UNL     1      -6.959  -1.069   8.515  1.00  0.00     0.120 C 
BRANCH  21  22
ATOM     22  C   UNL     1      -6.603  -0.901   7.051  1.00  0.00    -0.034 A 
ATOM     23  C   UNL     1      -7.317  -0.009   6.235  1.00  0.00     0.005 A 
ATOM     24  C   UNL     1      -5.564  -1.649   6.477  1.00  0.00     0.005 A 
ATOM     25  C   UNL     1      -6.986   0.143   4.886  1.00  0.00     0.000 A 
ATOM     26  C   UNL     1      -5.235  -1.496   5.128  1.00  0.00     0.000 A 
ATOM     27  C   UNL     1      -5.944  -0.597   4.335  1.00  0.00     0.000 A 
ENDBRANCH  21  22
ENDBRANCH  20  21
ENDBRANCH   4  15
TORSDOF 6
ENDMDL
MODEL 3
REMARK VINA RESULT:    -8.203      2.500     10.252
REMARK INTER + INTRA:         -11.809
REMARK INTER:                 -11.274
REMARK INTRA:                  -0.535
REMARK UNBOUND:                -0.729
REMARK SMILES O=C(CN1CCCC1)c1ccc(N2CCN(Cc3ccccc3)CC2)cc1
REMARK SMILES IDX 9 1 10 2 11 3 12 4 26 5 27 6 2 7 1 8 3 9 4 10 5 11 8 12 6 13
REMARK SMILES IDX 7 14 13 15 14 16 25 17 15 18 24 19 16 20 17 21 18 22 19 23
REMARK SMILES IDX 23 24 20 25 22 26 21 27
REMARK H PARENT
ROOT
ATOM      1  C   UNL     1      -7.854   1.483   8.867  1.00  0.00     0.019 A 
ATOM      2  C   UNL     1      -6.980   2.191   9.697  1.00  0.00     0.014 A 
ATOM      3  C   UNL     1      -7.261   2.350  11.061  1.00  0.00     0.026 A 
ATOM      4  C   UNL     1      -8.418   1.819  11.650  1.00  0.00     0.037 A 
ATOM      5  C   UNL     1      -9.279   1.111  10.797  1.00  0.00     0.026 A 
ATOM      6  C   UNL     1      -9.011   0.942   9.429  1.00  0.00     0.014 A 
ENDROOT
BRANCH   1   7
ATOM      7  C   UNL     1      -7.507   1.337   7.417  1.00  0.00     0.176 C 
ATOM      8  O   UNL     1      -7.286   2.360   6.770  1.00  0.00    -0.293 OA
BRANCH   7   9
ATOM      9  C   UNL     1      -7.458  -0.082   6.837  1.00  0.00     0.165 C 
BRANCH   9  10
ATOM     10  N   UNL     1      -6.286  -0.413   6.016  1.00  0.00    -0.296 NA
ATOM     11  C   UNL     1      -5.617  -1.665   6.354  1.00  0.00     0.085 C 
ATOM     12  C   UNL     1      -6.511  -0.431   4.576  1.00  0.00     0.085 C 
ATOM     13  C   UNL     1      -4.727  -1.944   5.146  1.00  0.00     0.017 C 
ATOM     14  C   UNL     1      -5.188  -0.973   4.066  1.00  0.00     0.017 C 
ENDBRANCH   9  10
ENDBRANCH   7   9
ENDBRANCH   1   7
BRANCH   4  15
ATOM     15  N   UNL     1      -8.692   1.970  12.997  1.00  0.00    -0.369 N 
ATOM     16  C   UNL     1      -9.442   0.947  13.749  1.00  0.00     0.132 C 
ATOM     17  C   UNL     1      -8.406   3.225  13.715  1.00  0.00     0.132 C 
ATOM     18  C   UNL     1     -10.264   1.590  14.894  1.00  0.00     0.106 C 
ATOM     19  C   UNL     1      -8.280   2.974  15.237  1.00  0.00     0.106 C 
ATOM     20  N   UNL     1      -9.442   2.327  15.866  1.00  0.00    -0.296 NA
BRANCH  20  21
ATOM     21  C   UNL     1     -10.206   3.171  16.789  1.00  0.00     0.120 C 
BRANCH  21  22
ATOM     22  C   UNL     1     -11.254   4.084  16.182  1.00  0.00    -0.034 A 
ATOM     23  C   UNL     1     -10.892   5.312  15.607  1.00  0.00     0.005 A 
ATOM     24  C   UNL     1     -12.611   3.728  16.202  1.00  0.00     0.005 A 
ATOM     25  C   UNL     1     -11.860   6.151  15.049  1.00  0.00     0.000 A 
ATOM     26  C   UNL     1     -13.578   4.568  15.644  1.00  0.00     0.000 A 
ATOM     27  C   UNL     1     -13.201   5.777  15.065  1.00  0.00     0.000 A 
ENDBRANCH  21  22
ENDBRANCH  20  21
ENDBRANCH   4  15
TORSDOF 6
ENDMDL
MODEL 4
REMARK VINA RESULT:    -7.811      2.677      9.553
REMARK INTER + INTRA:         -11.280
REMARK INTER:                 -10.657
REMARK INTRA:                  -0.623
REMARK UNBOUND:                -0.729
REMARK SMILES O=C(CN1CCCC1)c1ccc(N2CCN(Cc3ccccc3)CC2)cc1
REMARK SMILES IDX 9 1 10 2 11 3 12 4 26 5 27 6 2 7 1 8 3 9 4 10 5 11 8 12 6 13
REMARK SMILES IDX 7 14 13 15 14 16 25 17 15 18 24 19 16 20 17 21 18 22 19 23
REMARK SMILES IDX 23 24 20 25 22 26 21 27
REMARK H PARENT
ROOT
ATOM      1  C   UNL     1      -6.608  -0.635  10.701  1.00  0.00     0.019 A 
ATOM      2  C   UNL     1      -7.499  -1.564  11.242  1.00  0.00     0.014 A 
ATOM      3  C   UNL     1      -8.278  -1.241  12.361  1.00  0.00     0.026 A 
ATOM      4  C   UNL     1      -8.198   0.012  12.986  1.00  0.00     0.037 A 
ATOM      5  C   UNL     1      -7.298   0.931  12.423  1.00  0.00     0.026 A 
ATOM      6  C   UNL     1      -6.512   0.621  11.302  1.00  0.00     0.014 A 
ENDROOT
BRANCH   1   7
ATOM      7  C   UNL     1      -5.800  -1.027   9.501  1.00  0.00     0.176 C 
ATOM      8  O   UNL     1      -4.574  -1.042   9.610  1.00  0.00    -0.293 OA
BRANCH   7   9
ATOM      9  C   UNL     1      -6.560  -1.379   8.216  1.00  0.00     0.165 C 
BRANCH   9  10
ATOM     10  N   UNL     1      -6.950  -0.253   7.358  1.00  0.00    -0.296 NA
ATOM     11  C   UNL     1      -6.595  -0.386   5.948  1.00  0.00     0.085 C 
ATOM     12  C   UNL     1      -8.360   0.115   7.404  1.00  0.00     0.085 C 
ATOM     13  C   UNL     1      -7.434   0.683   5.255  1.00  0.00     0.017 C 
ATOM     14  C   UNL     1      -8.443   1.151   6.297  1.00  0.00     0.017 C 
ENDBRANCH   9  10
ENDBRANCH   7   9
ENDBRANCH   1   7
BRANCH   4  15
ATOM     15  N   UNL     1      -8.972   0.335  14.087  1.00  0.00    -0.369 N 
ATOM     16  C   UNL     1     -10.430   0.109  14.096  1.00  0.00     0.132 C 
ATOM     17  C   UNL     1      -8.421   1.073  15.237  1.00  0.00     0.132 C 
ATOM     18  C   UNL     1     -11.149   1.161  14.976  1.00  0.00     0.106 C 
ATOM     19  C   UNL     1      -9.273   0.832  16.507  1.00  0.00     0.106 C 
ATOM     20  N   UNL     1     -10.701   1.160  16.378  1.00  0.00    -0.296 NA
BRANCH  20  21
ATOM     21  C   UNL     1     -11.151   2.316  17.158  1.00  0.00     0.120 C 
BRANCH  21  22
ATOM     22  C   UNL     1     -11.321   3.627  16.416  1.00  0.00    -0.034 A 
ATOM     23  C   UNL     1     -10.204   4.379  16.019  1.00  0.00     0.005 A 
ATOM     24  C   UNL     1     -12.600   4.126  16.127  1.00  0.00     0.005 A 
ATOM     25  C   UNL     1     -10.363   5.587  15.335  1.00  0.00     0.000 A 
ATOM     26  C   UNL     1     -12.758   5.333  15.443  1.00  0.00     0.000 A 
ATOM     27  C   UNL     1     -11.640   6.061  15.044  1.00  0.00     0.000 A 
ENDBRANCH  21  22
ENDBRANCH  20  21
ENDBRANCH   4  15
TORSDOF 6
ENDMDL
MODEL 5
REMARK VINA RESULT:    -7.811      2.260      9.990
REMARK INTER + INTRA:         -11.279
REMARK INTER:                 -10.718
REMARK INTRA:                  -0.561
REMARK UNBOUND:                -0.729
REMARK SMILES O=C(CN1CCCC1)c1ccc(N2CCN(Cc3ccccc3)CC2)cc1
REMARK SMILES IDX 9 1 10 2 11 3 12 4 26 5 27 6 2 7 1 8 3 9 4 10 5 11 8 12 6 13
REMARK SMILES IDX 7 14 13 15 14 16 25 17 15 18 24 19 16 20 17 21 18 22 19 23
REMARK SMILES IDX 23 24 20 25 22 26 21 27
REMARK H PARENT
ROOT
ATOM      1  C   UNL     1      -7.316   2.085  10.431  1.00  0.00     0.019 A 
ATOM      2  C   UNL     1      -8.271   1.129  10.787  1.00  0.00     0.014 A 
ATOM      3  C   UNL     1      -8.974   1.237  11.995  1.00  0.00     0.026 A 
ATOM      4  C   UNL     1      -8.751   2.290  12.895  1.00  0.00     0.037 A 
ATOM      5  C   UNL     1      -7.789   3.238  12.514  1.00  0.00     0.026 A 
ATOM      6  C   UNL     1      -7.078   3.145  11.307  1.00  0.00     0.014 A 
ENDROOT
BRANCH   1   7
ATOM      7  C   UNL     1      -6.594   1.928   9.127  1.00  0.00     0.176 C 
ATOM      8  O   UNL     1      -6.182   2.944   8.569  1.00  0.00    -0.293 OA
BRANCH   7   9
ATOM      9  C   UNL     1      -6.424   0.507   8.574  1.00  0.00     0.165 C 
BRANCH   9  10
ATOM     10  N   UNL     1      -6.252   0.386   7.121  1.00  0.00    -0.296 NA
ATOM     11  C   UNL     1      -5.592  -0.833   6.667  1.00  0.00     0.085 C 
ATOM     12  C   UNL     1      -7.468   0.527   6.330  1.00  0.00     0.085 C 
ATOM     13  C   UNL     1      -5.895  -0.880   5.172  1.00  0.00     0.017 C 
ATOM     14  C   UNL     1      -6.972   0.172   4.940  1.00  0.00     0.017 C 
ENDBRANCH   9  10
ENDBRANCH   7   9
ENDBRANCH   1   7
BRANCH   4  15
ATOM     15  N   UNL     1      -9.449   2.400  14.084  1.00  0.00    -0.369 N 
ATOM     16  C   UNL     1     -10.193   1.258  14.649  1.00  0.00     0.132 C 
ATOM     17  C   UNL     1      -9.631   3.695  14.764  1.00  0.00     0.132 C 
ATOM     18  C   UNL     1     -11.430   1.741  15.447  1.00  0.00     0.106 C 
ATOM     19  C   UNL     1      -9.935   3.492  16.268  1.00  0.00     0.106 C 
ATOM     20  N   UNL     1     -11.095   2.637  16.565  1.00  0.00    -0.296 NA
BRANCH  20  21
ATOM     21  C   UNL     1     -12.247   3.326  17.154  1.00  0.00     0.120 C 
BRANCH  21  22
ATOM     22  C   UNL     1     -13.313   3.829  16.201  1.00  0.00    -0.034 A 
ATOM     23  C   UNL     1     -13.177   5.070  15.559  1.00  0.00     0.005 A 
ATOM     24  C   UNL     1     -14.468   3.072  15.955  1.00  0.00     0.005 A 
ATOM     25  C   UNL     1     -14.161   5.531  14.681  1.00  0.00     0.000 A 
ATOM     26  C   UNL     1     -15.451   3.533  15.077  1.00  0.00     0.000 A 
ATOM     27  C   UNL     1     -15.295   4.761  14.438  1.00  0.00     0.000 A 
ENDBRANCH  21  22
ENDBRANCH  20  21
ENDBRANCH   4  15
TORSDOF 6
ENDMDL
MODEL 6
REMARK VINA RESULT:    -7.425      1.269      1.943
REMARK INTER + INTRA:         -10.758
REMARK INTER:                 -10.587
REMARK INTRA:                  -0.172
REMARK UNBOUND:                -0.729
REMARK SMILES O=C(CN1CCCC1)c1ccc(N2CCN(Cc3ccccc3)CC2)cc1
REMARK SMILES IDX 9 1 10 2 11 3 12 4 26 5 27 6 2 7 1 8 3 9 4 10 5 11 8 12 6 13
REMARK SMILES IDX 7 14 13 15 14 16 25 17 15 18 24 19 16 20 17 21 18 22 19 23
REMARK SMILES IDX 23 24 20 25 22 26 21 27
REMARK H PARENT
ROOT
ATOM      1  C   UNL     1      -9.447   2.728  15.187  1.00  0.00     0.019 A 
ATOM      2  C   UNL     1      -9.593   1.339  15.218  1.00  0.00     0.014 A 
ATOM      3  C   UNL     1      -9.095   0.544  14.176  1.00  0.00     0.026 A 
ATOM      4  C   UNL     1      -8.440   1.097  13.066  1.00  0.00     0.037 A 
ATOM      5  C   UNL     1      -8.302   2.494  13.060  1.00  0.00     0.026 A 
ATOM      6  C   UNL     1      -8.795   3.303  14.096  1.00  0.00     0.014 A 
ENDROOT
BRANCH   1   7
ATOM      7  C   UNL     1      -9.993   3.533  16.327  1.00  0.00     0.176 C 
ATOM      8  O   UNL     1      -9.714   3.177  17.472  1.00  0.00    -0.293 OA
BRANCH   7   9
ATOM      9  C   UNL     1     -10.867   4.746  15.986  1.00  0.00     0.165 C 
BRANCH   9  10
ATOM     10  N   UNL     1     -12.169   4.463  15.369  1.00  0.00    -0.296 NA
ATOM     11  C   UNL     1     -12.882   3.311  15.911  1.00  0.00     0.085 C 
ATOM     12  C   UNL     1     -13.113   5.573  15.352  1.00  0.00     0.085 C 
ATOM     13  C   UNL     1     -14.306   3.482  15.391  1.00  0.00     0.017 C 
ATOM     14  C   UNL     1     -14.370   4.898  14.832  1.00  0.00     0.017 C 
ENDBRANCH   9  10
ENDBRANCH   7   9
ENDBRANCH   1   7
BRANCH   4  15
ATOM     15  N   UNL     1      -7.942   0.313  12.041  1.00  0.00    -0.369 N 
ATOM     16  C   UNL     1      -6.566   0.486  11.538  1.00  0.00     0.132 C 
ATOM     17  C   UNL     1      -8.800  -0.614  11.281  1.00  0.00     0.132 C 
ATOM     18  C   UNL     1      -6.476   0.133  10.033  1.00  0.00     0.106 C 
ATOM     19  C   UNL     1      -7.955  -1.724  10.611  1.00  0.00     0.106 C 
ATOM     20  N   UNL     1      -6.879  -1.248   9.727  1.00  0.00    -0.296 NA
BRANCH  20  21
ATOM     21  C   UNL     1      -7.073  -1.521   8.300  1.00  0.00     0.120 C 
BRANCH  21  22
ATOM     22  C   UNL     1      -7.483  -0.354   7.424  1.00  0.00    -0.034 A 
ATOM     23  C   UNL     1      -6.916  -0.175   6.152  1.00  0.00     0.005 A 
ATOM     24  C   UNL     1      -8.426   0.583   7.875  1.00  0.00     0.005 A 
ATOM     25  C   UNL     1      -7.297   0.902   5.347  1.00  0.00     0.000 A 
ATOM     26  C   UNL     1      -8.805   1.659   7.069  1.00  0.00     0.000 A 
ATOM     27  C   UNL     1      -8.243   1.815   5.804  1.00  0.00     0.000 A 
ENDBRANCH  21  22
ENDBRANCH  20  21
ENDBRANCH   4  15
TORSDOF 6
ENDMDL
MODEL 7
REMARK VINA RESULT:    -7.373      1.512      2.431
REMARK INTER + INTRA:         -10.687
REMARK INTER:                 -10.108
REMARK INTRA:                  -0.579
REMARK UNBOUND:                -0.729
REMARK SMILES O=C(CN1CCCC1)c1ccc(N2CCN(Cc3ccccc3)CC2)cc1
REMARK SMILES IDX 9 1 10 2 11 3 12 4 26 5 27 6 2 7 1 8 3 9 4 10 5 11 8 12 6 13
REMARK SMILES IDX 7 14 13 15 14 16 25 17 15 18 24 19 16 20 17 21 18 22 19 23
REMARK SMILES IDX 23 24 20 25 22 26 21 27
REMARK H PARENT
ROOT
ATOM      1  C   UNL     1     -11.992   1.006  15.448  1.00  0.00     0.019 A 
ATOM      2  C   UNL     1     -10.871   1.831  15.331  1.00  0.00     0.014 A 
ATOM      3  C   UNL     1      -9.963   1.660  14.277  1.00  0.00     0.026 A 
ATOM      4  C   UNL     1     -10.131   0.663  13.305  1.00  0.00     0.037 A 
ATOM      5  C   UNL     1     -11.266  -0.152  13.442  1.00  0.00     0.026 A 
ATOM      6  C   UNL     1     -12.184   0.008  14.491  1.00  0.00     0.014 A 
ENDROOT
BRANCH   1   7
ATOM      7  C   UNL     1     -12.936   1.232  16.590  1.00  0.00     0.176 C 
ATOM      8  O   UNL     1     -13.533   0.257  17.047  1.00  0.00    -0.293 OA
BRANCH   7   9
ATOM      9  C   UNL     1     -13.095   2.666  17.108  1.00  0.00     0.165 C 
BRANCH   9  10
ATOM     10  N   UNL     1     -13.997   3.541  16.349  1.00  0.00    -0.296 NA
ATOM     11  C   UNL     1     -13.355   4.643  15.641  1.00  0.00     0.085 C 
ATOM     12  C   UNL     1     -14.862   2.869  15.386  1.00  0.00     0.085 C 
ATOM     13  C   UNL     1     -14.420   5.122  14.660  1.00  0.00     0.017 C 
ATOM     14  C   UNL     1     -15.501   4.048  14.674  1.00  0.00     0.017 C 
ENDBRANCH   9  10
ENDBRANCH   7   9
ENDBRANCH   1   7
BRANCH   4  15
ATOM     15  N   UNL     1      -9.239   0.497  12.261  1.00  0.00    -0.369 N 
ATOM     16  C   UNL     1      -7.896  -0.073  12.479  1.00  0.00     0.132 C 
ATOM     17  C   UNL     1      -9.507   1.032  10.914  1.00  0.00     0.132 C 
ATOM     18  C   UNL     1      -6.874   0.513  11.473  1.00  0.00     0.106 C 
ATOM     19  C   UNL     1      -8.681   0.277   9.845  1.00  0.00     0.106 C 
ATOM     20  N   UNL     1      -7.226   0.267  10.066  1.00  0.00    -0.296 NA
BRANCH  20  21
ATOM     21  C   UNL     1      -6.441   1.042   9.101  1.00  0.00     0.120 C 
BRANCH  21  22
ATOM     22  C   UNL     1      -6.569   0.657   7.640  1.00  0.00    -0.034 A 
ATOM     23  C   UNL     1      -7.414   1.373   6.778  1.00  0.00     0.005 A 
ATOM     24  C   UNL     1      -5.859  -0.438   7.124  1.00  0.00     0.005 A 
ATOM     25  C   UNL     1      -7.530   1.016   5.433  1.00  0.00     0.000 A 
ATOM     26  C   UNL     1      -5.975  -0.794   5.778  1.00  0.00     0.000 A 
ATOM     27  C   UNL     1      -6.808  -0.065   4.933  1.00  0.00     0.000 A 
ENDBRANCH  21  22
ENDBRANCH  20  21
ENDBRANCH   4  15
TORSDOF 6
ENDMDL
MODEL 8
REMARK VINA RESULT:    -7.247      2.418      9.812
REMARK INTER + INTRA:         -10.518
REMARK INTER:                 -10.111
REMARK INTRA:                  -0.407
REMARK UNBOUND:                -0.729
REMARK SMILES O=C(CN1CCCC1)c1ccc(N2CCN(Cc3ccccc3)CC2)cc1
REMARK SMILES IDX 9 1 10 2 11 3 12 4 26 5 27 6 2 7 1 8 3 9 4 10 5 11 8 12 6 13
REMARK SMILES IDX 7 14 13 15 14 16 25 17 15 18 24 19 16 20 17 21 18 22 19 23
REMARK SMILES IDX 23 24 20 25 22 26 21 27
REMARK H PARENT
ROOT
ATOM      1  C   UNL     1      -7.385  -0.204  10.553  1.00  0.00     0.019 A 
ATOM      2  C   UNL     1      -8.640  -0.419  11.128  1.00  0.00     0.014 A 
ATOM      3  C   UNL     1      -8.999   0.223  12.321  1.00  0.00     0.026 A 
ATOM      4  C   UNL     1      -8.127   1.096  12.988  1.00  0.00     0.037 A 
ATOM      5  C   UNL     1      -6.873   1.298  12.390  1.00  0.00     0.026 A 
ATOM      6  C   UNL     1      -6.500   0.663  11.195  1.00  0.00     0.014 A 
ENDROOT
BRANCH   1   7
ATOM      7  C   UNL     1      -7.049  -0.911   9.275  1.00  0.00     0.176 C 
ATOM      8  O   UNL     1      -7.757  -1.858   8.935  1.00  0.00    -0.293 OA
BRANCH   7   9
ATOM      9  C   UNL     1      -5.840  -0.404   8.478  1.00  0.00     0.165 C 
BRANCH   9  10
ATOM     10  N   UNL     1      -6.106   0.068   7.114  1.00  0.00    -0.296 NA
ATOM     11  C   UNL     1      -5.859  -0.905   6.054  1.00  0.00     0.085 C 
ATOM     12  C   UNL     1      -7.439   0.611   6.884  1.00  0.00     0.085 C 
ATOM     13  C   UNL     1      -6.566  -0.313   4.839  1.00  0.00     0.017 C 
ATOM     14  C   UNL     1      -7.429   0.820   5.380  1.00  0.00     0.017 C 
ENDBRANCH   9  10
ENDBRANCH   7   9
ENDBRANCH   1   7
BRANCH   4  15
ATOM     15  N   UNL     1      -8.484   1.735  14.162  1.00  0.00    -0.369 N 
ATOM     16  C   UNL     1      -8.332   1.077  15.474  1.00  0.00     0.132 C 
ATOM     17  C   UNL     1      -9.188   3.029  14.162  1.00  0.00     0.132 C 
ATOM     18  C   UNL     1      -9.415   1.564  16.468  1.00  0.00     0.106 C 
ATOM     19  C   UNL     1      -8.985   3.769  15.507  1.00  0.00     0.106 C 
ATOM     20  N   UNL     1      -9.385   3.015  16.705  1.00  0.00    -0.296 NA
BRANCH  20  21
ATOM     21  C   UNL     1     -10.559   3.538  17.411  1.00  0.00     0.120 C 
BRANCH  21  22
ATOM     22  C   UNL     1     -11.741   3.966  16.562  1.00  0.00    -0.034 A 
ATOM     23  C   UNL     1     -12.763   3.058  16.244  1.00  0.00     0.005 A 
ATOM     24  C   UNL     1     -11.826   5.274  16.061  1.00  0.00     0.005 A 
ATOM     25  C   UNL     1     -13.851   3.455  15.461  1.00  0.00     0.000 A 
ATOM     26  C   UNL     1     -12.913   5.669  15.279  1.00  0.00     0.000 A 
ATOM     27  C   UNL     1     -13.927   4.761  14.983  1.00  0.00     0.000 A 
ENDBRANCH  21  22
ENDBRANCH  20  21
ENDBRANCH   4  15
TORSDOF 6
ENDMDL
MODEL 9
REMARK VINA RESULT:    -7.116      2.031      2.676
REMARK INTER + INTRA:         -10.340
REMARK INTER:                  -9.845
REMARK INTRA:                  -0.496
REMARK UNBOUND:                -0.729
REMARK SMILES O=C(CN1CCCC1)c1ccc(N2CCN(Cc3ccccc3)CC2)cc1
REMARK SMILES IDX 9 1 10 2 11 3 12 4 26 5 27 6 2 7 1 8 3 9 4 10 5 11 8 12 6 13
REMARK SMILES IDX 7 14 13 15 14 16 25 17 15 18 24 19 16 20 17 21 18 22 19 23
REMARK SMILES IDX 23 24 20 25 22 26 21 27
REMARK H PARENT
ROOT
ATOM      1  C   UNL     1     -10.766   3.069  15.508  1.00  0.00     0.019 A 
ATOM      2  C   UNL     1      -9.728   3.851  14.996  1.00  0.00     0.014 A 
ATOM      3  C   UNL     1      -8.774   3.296  14.132  1.00  0.00     0.026 A 
ATOM      4  C   UNL     1      -8.811   1.947  13.751  1.00  0.00     0.037 A 
ATOM      5  C   UNL     1      -9.865   1.182  14.276  1.00  0.00     0.026 A 
ATOM      6  C   UNL     1     -10.829   1.725  15.141  1.00  0.00     0.014 A 
ENDROOT
BRANCH   1   7
ATOM      7  C   UNL     1     -11.764   3.711  16.425  1.00  0.00     0.176 C 
ATOM      8  O   UNL     1     -11.879   3.256  17.563  1.00  0.00    -0.293 OA
BRANCH   7   9
ATOM      9  C   UNL     1     -12.579   4.889  15.876  1.00  0.00     0.165 C 
BRANCH   9  10
ATOM     10  N   UNL     1     -13.992   4.624  15.576  1.00  0.00    -0.296 NA
ATOM     11  C   UNL     1     -14.576   5.453  14.527  1.00  0.00     0.085 C 
ATOM     12  C   UNL     1     -14.318   3.241  15.251  1.00  0.00     0.085 C 
ATOM     13  C   UNL     1     -15.867   4.728  14.160  1.00  0.00     0.017 C 
ATOM     14  C   UNL     1     -15.771   3.361  14.827  1.00  0.00     0.017 C 
ENDBRANCH   9  10
ENDBRANCH   7   9
ENDBRANCH   1   7
BRANCH   4  15
ATOM     15  N   UNL     1      -7.874   1.399  12.893  1.00  0.00    -0.369 N 
ATOM     16  C   UNL     1      -6.581   2.063  12.641  1.00  0.00     0.132 C 
ATOM     17  C   UNL     1      -8.175   0.223  12.057  1.00  0.00     0.132 C 
ATOM     18  C   UNL     1      -6.075   1.768  11.207  1.00  0.00     0.106 C 
ATOM     19  C   UNL     1      -6.874  -0.501  11.635  1.00  0.00     0.106 C 
ATOM     20  N   UNL     1      -5.888   0.335  10.933  1.00  0.00    -0.296 NA
BRANCH  20  21
ATOM     21  C   UNL     1      -5.686   0.011   9.518  1.00  0.00     0.120 C 
BRANCH  21  22
ATOM     22  C   UNL     1      -6.693   0.568   8.531  1.00  0.00    -0.034 A 
ATOM     23  C   UNL     1      -7.862  -0.143   8.217  1.00  0.00     0.005 A 
ATOM     24  C   UNL     1      -6.467   1.798   7.895  1.00  0.00     0.005 A 
ATOM     25  C   UNL     1      -8.788   0.372   7.307  1.00  0.00     0.000 A 
ATOM     26  C   UNL     1      -7.394   2.313   6.986  1.00  0.00     0.000 A 
ATOM     27  C   UNL     1      -8.555   1.601   6.695  1.00  0.00     0.000 A 
ENDBRANCH  21  22
ENDBRANCH  20  21
ENDBRANCH   4  15
TORSDOF 6
ENDMDL
