MODEL 1
REMARK VINA RESULT:    -7.933      0.000      0.000
REMARK INTER + INTRA:         -17.112
REMARK INTER:                 -14.658
REMARK INTRA:                  -2.453
REMARK UNBOUND:                -2.453
REMARK SMILES CC(C)C[C@H](NC(=O)[C@@H]1CCCN1C(=O)CNC(=O)CNC(=O)[C@@H](N)Cc1ccc(O)cc1)C(=O)O
REMARK SMILES IDX 18 1 19 2 17 3 20 5 21 6 22 7 23 8 24 10 25 11 26 14 27 15
REMARK SMILES IDX 28 16 33 17 29 18 32 19 30 20 31 21 16 23 14 24 15 25 13 26
REMARK SMILES IDX 12 27 9 28 11 29 10 30 7 31 8 32 6 33 5 35 4 36 2 37 1 38
REMARK SMILES IDX 3 39 34 40 35 41 36 42
REMARK H PARENT 17 4 21 9 25 12 25 13 31 22 6 34 36 43
ROOT
ATOM      1  C   UNL     1     -10.411  -0.610  11.255  1.00  0.00     0.239 C 
ATOM      2  O   UNL     1     -11.444  -1.264  11.119  1.00  0.00    -0.273 OA
ATOM      3  N   UNL     1      -9.629  -0.665  12.392  1.00  0.00    -0.345 N 
ATOM      4  H   UNL     1      -8.642  -0.463  12.268  1.00  0.00     0.164 HD
ENDROOT
BRANCH   1   5
ATOM      5  C   UNL     1      -9.925   0.372  10.189  1.00  0.00     0.216 C 
BRANCH   5   6
ATOM      6  N   UNL     1      -8.605  -0.039   9.747  1.00  0.00    -0.346 N 
ATOM      7  C   UNL     1      -7.781   0.825   9.065  1.00  0.00     0.237 C 
ATOM      8  O   UNL     1      -8.186   1.866   8.553  1.00  0.00    -0.273 OA
ATOM      9  H   UNL     1      -8.189  -0.813  10.255  1.00  0.00     0.164 HD
BRANCH   7  10
ATOM     10  C   UNL     1      -6.332   0.313   8.890  1.00  0.00     0.145 C 
BRANCH  10  11
ATOM     11  N   UNL     1      -5.698   0.283  10.230  1.00  0.00    -0.320 NA
ATOM     12  H   UNL     1      -6.268   0.854  10.858  1.00  0.00     0.119 HD
ATOM     13  H   UNL     1      -4.799   0.766  10.177  1.00  0.00     0.119 HD
ENDBRANCH  10  11
BRANCH  10  14
ATOM     14  C   UNL     1      -6.312  -1.088   8.259  1.00  0.00     0.064 C 
BRANCH  14  15
ATOM     15  C   UNL     1      -6.076  -1.042   6.765  1.00  0.00    -0.046 A 
ATOM     16  C   UNL     1      -5.071  -1.828   6.180  1.00  0.00     0.007 A 
ATOM     17  C   UNL     1      -6.840  -0.201   5.946  1.00  0.00     0.007 A 
ATOM     18  C   UNL     1      -4.840  -1.776   4.805  1.00  0.00     0.046 A 
ATOM     19  C   UNL     1      -6.602  -0.140   4.572  1.00  0.00     0.046 A 
ATOM     20  C   UNL     1      -5.607  -0.933   4.012  1.00  0.00     0.115 A 
BRANCH  20  21
ATOM     21  O   UNL     1      -5.355  -0.911   2.672  1.00  0.00    -0.508 OA
ATOM     22  H   UNL     1      -6.034  -1.451   2.236  1.00  0.00     0.293 HD
ENDBRANCH  20  21
ENDBRANCH  14  15
ENDBRANCH  10  14
ENDBRANCH   7  10
ENDBRANCH   5   6
ENDBRANCH   1   5
BRANCH   3  23
ATOM     23  C   UNL     1      -9.929  -1.655  13.412  1.00  0.00     0.216 C 
BRANCH  23  24
ATOM     24  C   UNL     1     -10.708  -0.996  14.562  1.00  0.00     0.242 C 
ATOM     25  O   UNL     1     -11.943  -0.935  14.521  1.00  0.00    -0.273 OA
BRANCH  24  26
ATOM     26  N   UNL     1      -9.995  -0.519  15.644  1.00  0.00    -0.329 N 
ATOM     27  C   UNL     1      -9.133  -1.404  16.405  1.00  0.00     0.120 C 
ATOM     28  C   UNL     1     -10.211   0.749  16.353  1.00  0.00     0.174 C 
ATOM     29  C   UNL     1      -9.213  -0.870  17.824  1.00  0.00     0.024 C 
ATOM     30  C   UNL     1      -9.334   0.630  17.610  1.00  0.00     0.037 C 
BRANCH  28  31
ATOM     31  C   UNL     1      -9.798   1.988  15.534  1.00  0.00     0.243 C 
ATOM     32  O   UNL     1     -10.513   2.978  15.404  1.00  0.00    -0.273 OA
ATOM     33  N   UNL     1      -8.521   1.921  15.010  1.00  0.00    -0.341 N 
ATOM     34  H   UNL     1      -8.117   0.998  14.895  1.00  0.00     0.164 HD
BRANCH  33  35
ATOM     35  C   UNL     1      -8.057   2.932  14.058  1.00  0.00     0.192 C 
BRANCH  35  36
ATOM     36  C   UNL     1      -7.084   3.923  14.708  1.00  0.00     0.040 C 
BRANCH  36  37
ATOM     37  C   UNL     1      -5.598   3.800  14.308  1.00  0.00    -0.015 C 
ATOM     38  C   UNL     1      -4.698   3.346  15.457  1.00  0.00     0.007 C 
ATOM     39  C   UNL     1      -5.045   5.077  13.672  1.00  0.00     0.007 C 
ENDBRANCH  36  37
ENDBRANCH  35  36
BRANCH  35  40
ATOM     40  C   UNL     1      -7.337   2.183  12.934  1.00  0.00     0.326 C 
ATOM     41  O   UNL     1      -6.968   2.663  11.872  1.00  0.00    -0.250 OA
BRANCH  40  42
ATOM     42  O   UNL     1      -7.167   0.873  13.190  1.00  0.00    -0.480 OA
ATOM     43  H   UNL     1      -6.288   0.661  12.813  1.00  0.00     0.296 HD
ENDBRANCH  40  42
ENDBRANCH  35  40
ENDBRANCH  33  35
ENDBRANCH  28  31
ENDBRANCH  24  26
ENDBRANCH  23  24
ENDBRANCH   3  23
TORSDOF 16
ENDMDL
MODEL 2
REMARK VINA RESULT:    -7.752      3.124      9.437
REMARK INTER + INTRA:         -16.777
REMARK INTER:                 -15.299
REMARK INTRA:                  -1.478
REMARK UNBOUND:                -2.453
REMARK SMILES CC(C)C[C@H](NC(=O)[C@@H]1CCCN1C(=O)CNC(=O)CNC(=O)[C@@H](N)Cc1ccc(O)cc1)C(=O)O
REMARK SMILES IDX 18 1 19 2 17 3 20 5 21 6 22 7 23 8 24 10 25 11 26 14 27 15
REMARK SMILES IDX 28 16 33 17 29 18 32 19 30 20 31 21 16 23 14 24 15 25 13 26
REMARK SMILES IDX 12 27 9 28 11 29 10 30 7 31 8 32 6 33 5 35 4 36 2 37 1 38
REMARK SMILES IDX 3 39 34 40 35 41 36 42
REMARK H PARENT 17 4 21 9 25 12 25 13 31 22 6 34 36 43
ROOT
ATOM      1  C   UNL     1      -7.298   2.673  13.540  1.00  0.00     0.239 C 
ATOM      2  O   UNL     1      -7.008   3.459  12.640  1.00  0.00    -0.273 OA
ATOM      3  N   UNL     1      -7.531   1.329  13.323  1.00  0.00    -0.345 N 
ATOM      4  H   UNL     1      -7.339   0.708  14.102  1.00  0.00     0.164 HD
ENDROOT
BRANCH   1   5
ATOM      5  C   UNL     1      -7.482   3.129  14.988  1.00  0.00     0.216 C 
BRANCH   5   6
ATOM      6  N   UNL     1      -8.824   2.780  15.416  1.00  0.00    -0.346 N 
ATOM      7  C   UNL     1      -9.826   3.722  15.458  1.00  0.00     0.237 C 
ATOM      8  O   UNL     1      -9.606   4.930  15.412  1.00  0.00    -0.273 OA
ATOM      9  H   UNL     1      -9.077   1.801  15.329  1.00  0.00     0.164 HD
BRANCH   7  10
ATOM     10  C   UNL     1     -11.237   3.135  15.695  1.00  0.00     0.145 C 
BRANCH  10  11
ATOM     11  N   UNL     1     -11.112   2.039  16.685  1.00  0.00    -0.320 NA
ATOM     12  H   UNL     1     -10.115   1.866  16.835  1.00  0.00     0.119 HD
ATOM     13  H   UNL     1     -11.469   1.178  16.266  1.00  0.00     0.119 HD
ENDBRANCH  10  11
BRANCH  10  14
ATOM     14  C   UNL     1     -12.205   4.213  16.211  1.00  0.00     0.064 C 
BRANCH  14  15
ATOM     15  C   UNL     1     -13.552   4.151  15.525  1.00  0.00    -0.046 A 
ATOM     16  C   UNL     1     -14.090   5.293  14.912  1.00  0.00     0.007 A 
ATOM     17  C   UNL     1     -14.292   2.962  15.508  1.00  0.00     0.007 A 
ATOM     18  C   UNL     1     -15.338   5.244  14.291  1.00  0.00     0.046 A 
ATOM     19  C   UNL     1     -15.547   2.915  14.898  1.00  0.00     0.046 A 
ATOM     20  C   UNL     1     -16.057   4.055  14.289  1.00  0.00     0.115 A 
BRANCH  20  21
ATOM     21  O   UNL     1     -17.273   4.044  13.671  1.00  0.00    -0.508 OA
ATOM     22  H   UNL     1     -17.667   3.168  13.814  1.00  0.00     0.293 HD
ENDBRANCH  20  21
ENDBRANCH  14  15
ENDBRANCH  10  14
ENDBRANCH   7  10
ENDBRANCH   5   6
ENDBRANCH   1   5
BRANCH   3  23
ATOM     23  C   UNL     1      -7.262   0.767  12.010  1.00  0.00     0.216 C 
BRANCH  23  24
ATOM     24  C   UNL     1      -7.959  -0.597  11.876  1.00  0.00     0.242 C 
ATOM     25  O   UNL     1      -7.883  -1.426  12.792  1.00  0.00    -0.273 OA
BRANCH  24  26
ATOM     26  N   UNL     1      -8.696  -0.844  10.735  1.00  0.00    -0.329 N 
ATOM     27  C   UNL     1     -10.125  -0.597  10.714  1.00  0.00     0.120 C 
ATOM     28  C   UNL     1      -8.276  -1.632   9.568  1.00  0.00     0.174 C 
ATOM     29  C   UNL     1     -10.671  -1.662   9.778  1.00  0.00     0.024 C 
ATOM     30  C   UNL     1      -9.564  -1.798   8.746  1.00  0.00     0.037 C 
BRANCH  28  31
ATOM     31  C   UNL     1      -7.191  -0.941   8.719  1.00  0.00     0.243 C 
ATOM     32  O   UNL     1      -6.011  -0.880   9.055  1.00  0.00    -0.273 OA
ATOM     33  N   UNL     1      -7.645  -0.450   7.510  1.00  0.00    -0.341 N 
ATOM     34  H   UNL     1      -8.639  -0.264   7.431  1.00  0.00     0.164 HD
BRANCH  33  35
ATOM     35  C   UNL     1      -6.781   0.394   6.681  1.00  0.00     0.192 C 
BRANCH  35  36
ATOM     36  C   UNL     1      -6.801  -0.042   5.211  1.00  0.00     0.040 C 
BRANCH  36  37
ATOM     37  C   UNL     1      -5.797  -1.140   4.798  1.00  0.00    -0.015 C 
ATOM     38  C   UNL     1      -4.643  -1.307   5.787  1.00  0.00     0.007 C 
ATOM     39  C   UNL     1      -5.257  -0.950   3.379  1.00  0.00     0.007 C 
ENDBRANCH  36  37
ENDBRANCH  35  36
BRANCH  35  40
ATOM     40  C   UNL     1      -7.320   1.822   6.791  1.00  0.00     0.326 C 
ATOM     41  O   UNL     1      -8.064   2.372   5.992  1.00  0.00    -0.250 OA
BRANCH  40  42
ATOM     42  O   UNL     1      -6.857   2.485   7.866  1.00  0.00    -0.480 OA
ATOM     43  H   UNL     1      -6.332   1.820   8.358  1.00  0.00     0.296 HD
ENDBRANCH  40  42
ENDBRANCH  35  40
ENDBRANCH  33  35
ENDBRANCH  28  31
ENDBRANCH  24  26
ENDBRANCH  23  24
ENDBRANCH   3  23
TORSDOF 16
ENDMDL
MODEL 3
REMARK VINA RESULT:    -7.388      3.583      9.578
REMARK INTER + INTRA:         -16.105
REMARK INTER:                 -14.702
REMARK INTRA:                  -1.403
REMARK UNBOUND:                -2.453
REMARK SMILES CC(C)C[C@H](NC(=O)[C@@H]1CCCN1C(=O)CNC(=O)CNC(=O)[C@@H](N)Cc1ccc(O)cc1)C(=O)O
REMARK SMILES IDX 18 1 19 2 17 3 20 5 21 6 22 7 23 8 24 10 25 11 26 14 27 15
REMARK SMILES IDX 28 16 33 17 29 18 32 19 30 20 31 21 16 23 14 24 15 25 13 26
REMARK SMILES IDX 12 27 9 28 11 29 10 30 7 31 8 32 6 33 5 35 4 36 2 37 1 38
REMARK SMILES IDX 3 39 34 40 35 41 36 42
REMARK H PARENT 17 4 21 9 25 12 25 13 31 22 6 34 36 43
ROOT
ATOM      1  C   UNL     1      -8.242   3.130  15.749  1.00  0.00     0.239 C 
ATOM      2  O   UNL     1      -8.326   4.330  15.490  1.00  0.00    -0.273 OA
ATOM      3  N   UNL     1      -7.505   2.244  14.989  1.00  0.00    -0.345 N 
ATOM      4  H   UNL     1      -7.144   1.429  15.474  1.00  0.00     0.164 HD
ENDROOT
BRANCH   1   5
ATOM      5  C   UNL     1      -8.998   2.497  16.918  1.00  0.00     0.216 C 
BRANCH   5   6
ATOM      6  N   UNL     1     -10.259   1.975  16.426  1.00  0.00    -0.346 N 
ATOM      7  C   UNL     1     -11.350   2.794  16.251  1.00  0.00     0.237 C 
ATOM      8  O   UNL     1     -11.423   3.918  16.743  1.00  0.00    -0.273 OA
ATOM      9  H   UNL     1     -10.203   1.114  15.890  1.00  0.00     0.164 HD
BRANCH   7  10
ATOM     10  C   UNL     1     -12.524   2.133  15.492  1.00  0.00     0.145 C 
BRANCH  10  11
ATOM     11  N   UNL     1     -12.246   0.680  15.405  1.00  0.00    -0.320 NA
ATOM     12  H   UNL     1     -11.317   0.515  15.800  1.00  0.00     0.119 HD
ATOM     13  H   UNL     1     -12.164   0.420  14.421  1.00  0.00     0.119 HD
ENDBRANCH  10  11
BRANCH  10  14
ATOM     14  C   UNL     1     -13.859   2.379  16.213  1.00  0.00     0.064 C 
BRANCH  14  15
ATOM     15  C   UNL     1     -14.796   3.251  15.406  1.00  0.00    -0.046 A 
ATOM     16  C   UNL     1     -16.032   2.752  14.970  1.00  0.00     0.007 A 
ATOM     17  C   UNL     1     -14.437   4.561  15.065  1.00  0.00     0.007 A 
ATOM     18  C   UNL     1     -16.892   3.547  14.213  1.00  0.00     0.046 A 
ATOM     19  C   UNL     1     -15.292   5.355  14.298  1.00  0.00     0.046 A 
ATOM     20  C   UNL     1     -16.515   4.842  13.883  1.00  0.00     0.115 A 
BRANCH  20  21
ATOM     21  O   UNL     1     -17.382   5.592  13.144  1.00  0.00    -0.508 OA
ATOM     22  H   UNL     1     -18.098   5.880  13.733  1.00  0.00     0.293 HD
ENDBRANCH  20  21
ENDBRANCH  14  15
ENDBRANCH  10  14
ENDBRANCH   7  10
ENDBRANCH   5   6
ENDBRANCH   1   5
BRANCH   3  23
ATOM     23  C   UNL     1      -6.649   2.758  13.933  1.00  0.00     0.216 C 
BRANCH  23  24
ATOM     24  C   UNL     1      -7.255   2.416  12.562  1.00  0.00     0.242 C 
ATOM     25  O   UNL     1      -8.296   1.750  12.490  1.00  0.00    -0.273 OA
BRANCH  24  26
ATOM     26  N   UNL     1      -6.629   2.905  11.432  1.00  0.00    -0.329 N 
ATOM     27  C   UNL     1      -5.426   3.707  11.546  1.00  0.00     0.120 C 
ATOM     28  C   UNL     1      -7.190   2.980  10.076  1.00  0.00     0.174 C 
ATOM     29  C   UNL     1      -5.516   4.678  10.383  1.00  0.00     0.024 C 
ATOM     30  C   UNL     1      -6.181   3.843   9.301  1.00  0.00     0.037 C 
BRANCH  28  31
ATOM     31  C   UNL     1      -7.342   1.604   9.397  1.00  0.00     0.243 C 
ATOM     32  O   UNL     1      -8.430   1.090   9.154  1.00  0.00    -0.273 OA
ATOM     33  N   UNL     1      -6.146   1.023   9.023  1.00  0.00    -0.341 N 
ATOM     34  H   UNL     1      -5.310   1.334   9.505  1.00  0.00     0.164 HD
BRANCH  33  35
ATOM     35  C   UNL     1      -6.114  -0.360   8.541  1.00  0.00     0.192 C 
BRANCH  35  36
ATOM     36  C   UNL     1      -5.190  -0.518   7.326  1.00  0.00     0.040 C 
BRANCH  36  37
ATOM     37  C   UNL     1      -5.803  -1.173   6.069  1.00  0.00    -0.015 C 
ATOM     38  C   UNL     1      -4.766  -1.849   5.172  1.00  0.00     0.007 C 
ATOM     39  C   UNL     1      -6.662  -0.205   5.252  1.00  0.00     0.007 C 
ENDBRANCH  36  37
ENDBRANCH  35  36
BRANCH  35  40
ATOM     40  C   UNL     1      -5.583  -1.218   9.692  1.00  0.00     0.326 C 
ATOM     41  O   UNL     1      -6.259  -1.773  10.545  1.00  0.00    -0.250 OA
BRANCH  40  42
ATOM     42  O   UNL     1      -4.240  -1.287   9.729  1.00  0.00    -0.480 OA
ATOM     43  H   UNL     1      -4.049  -2.160  10.130  1.00  0.00     0.296 HD
ENDBRANCH  40  42
ENDBRANCH  35  40
ENDBRANCH  33  35
ENDBRANCH  28  31
ENDBRANCH  24  26
ENDBRANCH  23  24
ENDBRANCH   3  23
TORSDOF 16
ENDMDL
MODEL 4
REMARK VINA RESULT:    -7.178      1.869      2.744
REMARK INTER + INTRA:         -15.716
REMARK INTER:                 -14.057
REMARK INTRA:                  -1.660
REMARK UNBOUND:                -2.453
REMARK SMILES CC(C)C[C@H](NC(=O)[C@@H]1CCCN1C(=O)CNC(=O)CNC(=O)[C@@H](N)Cc1ccc(O)cc1)C(=O)O
REMARK SMILES IDX 18 1 19 2 17 3 20 5 21 6 22 7 23 8 24 10 25 11 26 14 27 15
REMARK SMILES IDX 28 16 33 17 29 18 32 19 30 20 31 21 16 23 14 24 15 25 13 26
REMARK SMILES IDX 12 27 9 28 11 29 10 30 7 31 8 32 6 33 5 35 4 36 2 37 1 38
REMARK SMILES IDX 3 39 34 40 35 41 36 42
REMARK H PARENT 17 4 21 9 25 12 25 13 31 22 6 34 36 43
ROOT
ATOM      1  C   UNL     1      -8.218   0.671  12.316  1.00  0.00     0.239 C 
ATOM      2  O   UNL     1      -9.183   1.324  11.921  1.00  0.00    -0.273 OA
ATOM      3  N   UNL     1      -8.301  -0.260  13.332  1.00  0.00    -0.345 N 
ATOM      4  H   UNL     1      -7.627  -1.017  13.303  1.00  0.00     0.164 HD
ENDROOT
BRANCH   1   5
ATOM      5  C   UNL     1      -6.813   0.874  11.746  1.00  0.00     0.216 C 
BRANCH   5   6
ATOM      6  N   UNL     1      -6.786   0.363  10.388  1.00  0.00    -0.346 N 
ATOM      7  C   UNL     1      -6.986  -0.972  10.124  1.00  0.00     0.237 C 
ATOM      8  O   UNL     1      -6.922  -1.838  10.994  1.00  0.00    -0.273 OA
ATOM      9  H   UNL     1      -6.979   1.040   9.656  1.00  0.00     0.164 HD
BRANCH   7  10
ATOM     10  C   UNL     1      -7.171  -1.301   8.625  1.00  0.00     0.145 C 
BRANCH  10  11
ATOM     11  N   UNL     1      -8.602  -1.618   8.405  1.00  0.00    -0.320 NA
ATOM     12  H   UNL     1      -8.672  -2.167   7.545  1.00  0.00     0.119 HD
ATOM     13  H   UNL     1      -9.103  -0.750   8.204  1.00  0.00     0.119 HD
ENDBRANCH  10  11
BRANCH  10  14
ATOM     14  C   UNL     1      -6.744  -0.118   7.741  1.00  0.00     0.064 C 
BRANCH  14  15
ATOM     15  C   UNL     1      -6.166  -0.569   6.417  1.00  0.00    -0.046 A 
ATOM     16  C   UNL     1      -5.062  -1.434   6.382  1.00  0.00     0.007 A 
ATOM     17  C   UNL     1      -6.710  -0.116   5.208  1.00  0.00     0.007 A 
ATOM     18  C   UNL     1      -4.517  -1.839   5.164  1.00  0.00     0.046 A 
ATOM     19  C   UNL     1      -6.158  -0.512   3.989  1.00  0.00     0.046 A 
ATOM     20  C   UNL     1      -5.069  -1.376   3.977  1.00  0.00     0.115 A 
BRANCH  20  21
ATOM     21  O   UNL     1      -4.512  -1.795   2.805  1.00  0.00    -0.508 OA
ATOM     22  H   UNL     1      -3.548  -1.713   2.892  1.00  0.00     0.293 HD
ENDBRANCH  20  21
ENDBRANCH  14  15
ENDBRANCH  10  14
ENDBRANCH   7  10
ENDBRANCH   5   6
ENDBRANCH   1   5
BRANCH   3  23
ATOM     23  C   UNL     1      -9.607  -0.621  13.857  1.00  0.00     0.216 C 
BRANCH  23  24
ATOM     24  C   UNL     1      -9.452  -1.239  15.256  1.00  0.00     0.242 C 
ATOM     25  O   UNL     1      -8.478  -1.958  15.514  1.00  0.00    -0.273 OA
BRANCH  24  26
ATOM     26  N   UNL     1     -10.401  -0.934  16.213  1.00  0.00    -0.329 N 
ATOM     27  C   UNL     1     -10.937  -1.971  17.073  1.00  0.00     0.120 C 
ATOM     28  C   UNL     1     -11.201   0.294  16.300  1.00  0.00     0.174 C 
ATOM     29  C   UNL     1     -12.371  -1.539  17.326  1.00  0.00     0.024 C 
ATOM     30  C   UNL     1     -12.259  -0.024  17.369  1.00  0.00     0.037 C 
BRANCH  28  31
ATOM     31  C   UNL     1     -10.382   1.532  16.718  1.00  0.00     0.243 C 
ATOM     32  O   UNL     1      -9.995   1.726  17.868  1.00  0.00    -0.273 OA
ATOM     33  N   UNL     1     -10.062   2.378  15.674  1.00  0.00    -0.341 N 
ATOM     34  H   UNL     1     -10.643   2.329  14.845  1.00  0.00     0.164 HD
BRANCH  33  35
ATOM     35  C   UNL     1      -9.454   3.684  15.939  1.00  0.00     0.192 C 
BRANCH  35  36
ATOM     36  C   UNL     1      -8.312   3.989  14.961  1.00  0.00     0.040 C 
BRANCH  36  37
ATOM     37  C   UNL     1      -6.982   3.240  15.191  1.00  0.00    -0.015 C 
ATOM     38  C   UNL     1      -6.735   2.881  16.657  1.00  0.00     0.007 C 
ATOM     39  C   UNL     1      -5.773   3.981  14.615  1.00  0.00     0.007 C 
ENDBRANCH  36  37
ENDBRANCH  35  36
BRANCH  35  40
ATOM     40  C   UNL     1     -10.558   4.729  15.765  1.00  0.00     0.326 C 
ATOM     41  O   UNL     1     -11.752   4.499  15.638  1.00  0.00    -0.250 OA
BRANCH  40  42
ATOM     42  O   UNL     1     -10.094   5.991  15.715  1.00  0.00    -0.480 OA
ATOM     43  H   UNL     1     -10.219   6.336  16.623  1.00  0.00     0.296 HD
ENDBRANCH  40  42
ENDBRANCH  35  40
ENDBRANCH  33  35
ENDBRANCH  28  31
ENDBRANCH  24  26
ENDBRANCH  23  24
ENDBRANCH   3  23
TORSDOF 16
ENDMDL
MODEL 5
REMARK VINA RESULT:    -7.063      2.727      5.016
REMARK INTER + INTRA:         -15.504
REMARK INTER:                 -14.074
REMARK INTRA:                  -1.430
REMARK UNBOUND:                -2.453
REMARK SMILES CC(C)C[C@H](NC(=O)[C@@H]1CCCN1C(=O)CNC(=O)CNC(=O)[C@@H](N)Cc1ccc(O)cc1)C(=O)O
REMARK SMILES IDX 18 1 19 2 17 3 20 5 21 6 22 7 23 8 24 10 25 11 26 14 27 15
REMARK SMILES IDX 28 16 33 17 29 18 32 19 30 20 31 21 16 23 14 24 15 25 13 26
REMARK SMILES IDX 12 27 9 28 11 29 10 30 7 31 8 32 6 33 5 35 4 36 2 37 1 38
REMARK SMILES IDX 3 39 34 40 35 41 36 42
REMARK H PARENT 17 4 21 9 25 12 25 13 31 22 6 34 36 43
ROOT
ATOM      1  C   UNL     1      -6.324   2.850  11.933  1.00  0.00     0.239 C 
ATOM      2  O   UNL     1      -6.467   3.957  11.417  1.00  0.00    -0.273 OA
ATOM      3  N   UNL     1      -7.153   2.368  12.926  1.00  0.00    -0.345 N 
ATOM      4  H   UNL     1      -7.245   1.359  12.984  1.00  0.00     0.164 HD
ENDROOT
BRANCH   1   5
ATOM      5  C   UNL     1      -5.170   1.921  11.555  1.00  0.00     0.216 C 
BRANCH   5   6
ATOM      6  N   UNL     1      -5.573   1.123  10.413  1.00  0.00    -0.346 N 
ATOM      7  C   UNL     1      -6.524   0.137  10.532  1.00  0.00     0.237 C 
ATOM      8  O   UNL     1      -6.883  -0.313  11.618  1.00  0.00    -0.273 OA
ATOM      9  H   UNL     1      -5.414   1.541   9.501  1.00  0.00     0.164 HD
BRANCH   7  10
ATOM     10  C   UNL     1      -7.011  -0.441   9.183  1.00  0.00     0.145 C 
BRANCH  10  11
ATOM     11  N   UNL     1      -8.458  -0.737   9.312  1.00  0.00    -0.320 NA
ATOM     12  H   UNL     1      -8.797  -0.271  10.157  1.00  0.00     0.119 HD
ATOM     13  H   UNL     1      -8.573  -1.735   9.496  1.00  0.00     0.119 HD
ENDBRANCH  10  11
BRANCH  10  14
ATOM     14  C   UNL     1      -6.769   0.552   8.035  1.00  0.00     0.064 C 
BRANCH  14  15
ATOM     15  C   UNL     1      -6.201  -0.120   6.804  1.00  0.00    -0.046 A 
ATOM     16  C   UNL     1      -6.788   0.089   5.546  1.00  0.00     0.007 A 
ATOM     17  C   UNL     1      -5.096  -0.975   6.902  1.00  0.00     0.007 A 
ATOM     18  C   UNL     1      -6.277  -0.541   4.412  1.00  0.00     0.046 A 
ATOM     19  C   UNL     1      -4.590  -1.614   5.768  1.00  0.00     0.046 A 
ATOM     20  C   UNL     1      -5.182  -1.387   4.531  1.00  0.00     0.115 A 
BRANCH  20  21
ATOM     21  O   UNL     1      -4.707  -1.983   3.400  1.00  0.00    -0.508 OA
ATOM     22  H   UNL     1      -3.800  -1.667   3.260  1.00  0.00     0.293 HD
ENDBRANCH  20  21
ENDBRANCH  14  15
ENDBRANCH  10  14
ENDBRANCH   7  10
ENDBRANCH   5   6
ENDBRANCH   1   5
BRANCH   3  23
ATOM     23  C   UNL     1      -8.352   3.113  13.272  1.00  0.00     0.216 C 
BRANCH  23  24
ATOM     24  C   UNL     1      -9.145   2.351  14.346  1.00  0.00     0.242 C 
ATOM     25  O   UNL     1      -9.973   1.492  14.016  1.00  0.00    -0.273 OA
BRANCH  24  26
ATOM     26  N   UNL     1      -8.875   2.624  15.673  1.00  0.00    -0.329 N 
ATOM     27  C   UNL     1      -7.568   3.109  16.073  1.00  0.00     0.120 C 
ATOM     28  C   UNL     1      -9.664   2.201  16.838  1.00  0.00     0.174 C 
ATOM     29  C   UNL     1      -7.364   2.522  17.459  1.00  0.00     0.024 C 
ATOM     30  C   UNL     1      -8.768   2.541  18.040  1.00  0.00     0.037 C 
BRANCH  28  31
ATOM     31  C   UNL     1     -11.016   2.932  16.962  1.00  0.00     0.243 C 
ATOM     32  O   UNL     1     -11.129   4.064  17.427  1.00  0.00    -0.273 OA
ATOM     33  N   UNL     1     -12.088   2.231  16.445  1.00  0.00    -0.341 N 
ATOM     34  H   UNL     1     -11.986   1.226  16.362  1.00  0.00     0.164 HD
BRANCH  33  35
ATOM     35  C   UNL     1     -13.456   2.708  16.658  1.00  0.00     0.192 C 
BRANCH  35  36
ATOM     36  C   UNL     1     -14.082   3.241  15.362  1.00  0.00     0.040 C 
BRANCH  36  37
ATOM     37  C   UNL     1     -14.371   4.757  15.304  1.00  0.00    -0.015 C 
ATOM     38  C   UNL     1     -15.465   5.126  14.302  1.00  0.00     0.007 C 
ATOM     39  C   UNL     1     -13.115   5.593  15.050  1.00  0.00     0.007 C 
ENDBRANCH  36  37
ENDBRANCH  35  36
BRANCH  35  40
ATOM     40  C   UNL     1     -14.270   1.511  17.154  1.00  0.00     0.326 C 
ATOM     41  O   UNL     1     -15.490   1.436  17.189  1.00  0.00    -0.250 OA
BRANCH  40  42
ATOM     42  O   UNL     1     -13.508   0.504  17.618  1.00  0.00    -0.480 OA
ATOM     43  H   UNL     1     -13.407   0.691  18.574  1.00  0.00     0.296 HD
ENDBRANCH  40  42
ENDBRANCH  35  40
ENDBRANCH  33  35
ENDBRANCH  28  31
ENDBRANCH  24  26
ENDBRANCH  23  24
ENDBRANCH   3  23
TORSDOF 16
ENDMDL
MODEL 6
REMARK VINA RESULT:    -6.903      2.826      4.644
REMARK INTER + INTRA:         -15.207
REMARK INTER:                 -13.119
REMARK INTRA:                  -2.088
REMARK UNBOUND:                -2.453
REMARK SMILES CC(C)C[C@H](NC(=O)[C@@H]1CCCN1C(=O)CNC(=O)CNC(=O)[C@@H](N)Cc1ccc(O)cc1)C(=O)O
REMARK SMILES IDX 18 1 19 2 17 3 20 5 21 6 22 7 23 8 24 10 25 11 26 14 27 15
REMARK SMILES IDX 28 16 33 17 29 18 32 19 30 20 31 21 16 23 14 24 15 25 13 26
REMARK SMILES IDX 12 27 9 28 11 29 10 30 7 31 8 32 6 33 5 35 4 36 2 37 1 38
REMARK SMILES IDX 3 39 34 40 35 41 36 42
REMARK H PARENT 17 4 21 9 25 12 25 13 31 22 6 34 36 43
ROOT
ATOM      1  C   UNL     1      -6.802   2.886  13.657  1.00  0.00     0.239 C 
ATOM      2  O   UNL     1      -6.897   4.014  14.139  1.00  0.00    -0.273 OA
ATOM      3  N   UNL     1      -7.332   1.762  14.258  1.00  0.00    -0.345 N 
ATOM      4  H   UNL     1      -7.586   1.000  13.639  1.00  0.00     0.164 HD
ENDROOT
BRANCH   1   5
ATOM      5  C   UNL     1      -6.033   2.619  12.363  1.00  0.00     0.216 C 
BRANCH   5   6
ATOM      6  N   UNL     1      -6.981   2.246  11.329  1.00  0.00    -0.346 N 
ATOM      7  C   UNL     1      -7.303   0.929  11.099  1.00  0.00     0.237 C 
ATOM      8  O   UNL     1      -6.635  -0.005  11.536  1.00  0.00    -0.273 OA
ATOM      9  H   UNL     1      -7.641   2.966  11.052  1.00  0.00     0.164 HD
BRANCH   7  10
ATOM     10  C   UNL     1      -8.501   0.727  10.143  1.00  0.00     0.145 C 
BRANCH  10  11
ATOM     11  N   UNL     1      -9.744   0.870  10.939  1.00  0.00    -0.320 NA
ATOM     12  H   UNL     1     -10.325   0.048  10.761  1.00  0.00     0.119 HD
ATOM     13  H   UNL     1     -10.281   1.657  10.569  1.00  0.00     0.119 HD
ENDBRANCH  10  11
BRANCH  10  14
ATOM     14  C   UNL     1      -8.478   1.756   9.001  1.00  0.00     0.064 C 
BRANCH  14  15
ATOM     15  C   UNL     1      -7.967   1.163   7.705  1.00  0.00    -0.046 A 
ATOM     16  C   UNL     1      -7.096   0.064   7.722  1.00  0.00     0.007 A 
ATOM     17  C   UNL     1      -8.338   1.714   6.472  1.00  0.00     0.007 A 
ATOM     18  C   UNL     1      -6.610  -0.475   6.531  1.00  0.00     0.046 A 
ATOM     19  C   UNL     1      -7.844   1.183   5.280  1.00  0.00     0.046 A 
ATOM     20  C   UNL     1      -6.989   0.088   5.319  1.00  0.00     0.115 A 
BRANCH  20  21
ATOM     21  O   UNL     1      -6.497  -0.467   4.174  1.00  0.00    -0.508 OA
ATOM     22  H   UNL     1      -7.246  -0.615   3.574  1.00  0.00     0.293 HD
ENDBRANCH  20  21
ENDBRANCH  14  15
ENDBRANCH  10  14
ENDBRANCH   7  10
ENDBRANCH   5   6
ENDBRANCH   1   5
BRANCH   3  23
ATOM     23  C   UNL     1      -8.187   1.917  15.423  1.00  0.00     0.216 C 
BRANCH  23  24
ATOM     24  C   UNL     1      -9.613   1.450  15.087  1.00  0.00     0.242 C 
ATOM     25  O   UNL     1     -10.063   1.601  13.944  1.00  0.00    -0.273 OA
BRANCH  24  26
ATOM     26  N   UNL     1     -10.346   0.829  16.078  1.00  0.00    -0.329 N 
ATOM     27  C   UNL     1      -9.722  -0.143  16.956  1.00  0.00     0.120 C 
ATOM     28  C   UNL     1     -11.809   0.790  16.199  1.00  0.00     0.174 C 
ATOM     29  C   UNL     1     -10.833  -1.132  17.263  1.00  0.00     0.024 C 
ATOM     30  C   UNL     1     -12.067  -0.246  17.305  1.00  0.00     0.037 C 
BRANCH  28  31
ATOM     31  C   UNL     1     -12.430   2.146  16.589  1.00  0.00     0.243 C 
ATOM     32  O   UNL     1     -12.553   2.520  17.752  1.00  0.00    -0.273 OA
ATOM     33  N   UNL     1     -12.779   2.940  15.513  1.00  0.00    -0.341 N 
ATOM     34  H   UNL     1     -12.933   2.474  14.626  1.00  0.00     0.164 HD
BRANCH  33  35
ATOM     35  C   UNL     1     -13.549   4.169  15.718  1.00  0.00     0.192 C 
BRANCH  35  36
ATOM     36  C   UNL     1     -12.837   5.392  15.127  1.00  0.00     0.040 C 
BRANCH  36  37
ATOM     37  C   UNL     1     -11.635   5.947  15.923  1.00  0.00    -0.015 C 
ATOM     38  C   UNL     1     -10.312   5.264  15.576  1.00  0.00     0.007 C 
ATOM     39  C   UNL     1     -11.863   5.926  17.436  1.00  0.00     0.007 C 
ENDBRANCH  36  37
ENDBRANCH  35  36
BRANCH  35  40
ATOM     40  C   UNL     1     -14.890   3.975  15.006  1.00  0.00     0.326 C 
ATOM     41  O   UNL     1     -15.610   2.990  15.085  1.00  0.00    -0.250 OA
BRANCH  40  42
ATOM     42  O   UNL     1     -15.221   5.004  14.205  1.00  0.00    -0.480 OA
ATOM     43  H   UNL     1     -14.659   4.889  13.411  1.00  0.00     0.296 HD
ENDBRANCH  40  42
ENDBRANCH  35  40
ENDBRANCH  33  35
ENDBRANCH  28  31
ENDBRANCH  24  26
ENDBRANCH  23  24
ENDBRANCH   3  23
TORSDOF 16
ENDMDL
MODEL 7
REMARK VINA RESULT:    -6.820      2.131      7.753
REMARK INTER + INTRA:         -15.055
REMARK INTER:                 -12.413
REMARK INTRA:                  -2.642
REMARK UNBOUND:                -2.453
REMARK SMILES CC(C)C[C@H](NC(=O)[C@@H]1CCCN1C(=O)CNC(=O)CNC(=O)[C@@H](N)Cc1ccc(O)cc1)C(=O)O
REMARK SMILES IDX 18 1 19 2 17 3 20 5 21 6 22 7 23 8 24 10 25 11 26 14 27 15
REMARK SMILES IDX 28 16 33 17 29 18 32 19 30 20 31 21 16 23 14 24 15 25 13 26
REMARK SMILES IDX 12 27 9 28 11 29 10 30 7 31 8 32 6 33 5 35 4 36 2 37 1 38
REMARK SMILES IDX 3 39 34 40 35 41 36 42
REMARK H PARENT 17 4 21 9 25 12 25 13 31 22 6 34 36 43
ROOT
ATOM      1  C   UNL     1      -9.456   3.332  16.108  1.00  0.00     0.239 C 
ATOM      2  O   UNL     1     -10.188   4.215  15.664  1.00  0.00    -0.273 OA
ATOM      3  N   UNL     1      -8.331   2.881  15.447  1.00  0.00    -0.345 N 
ATOM      4  H   UNL     1      -7.590   2.504  16.029  1.00  0.00     0.164 HD
ENDROOT
BRANCH   1   5
ATOM      5  C   UNL     1      -9.760   2.610  17.422  1.00  0.00     0.216 C 
BRANCH   5   6
ATOM      6  N   UNL     1      -9.481   1.197  17.249  1.00  0.00    -0.346 N 
ATOM      7  C   UNL     1     -10.498   0.275  17.156  1.00  0.00     0.237 C 
ATOM      8  O   UNL     1     -11.656   0.529  17.481  1.00  0.00    -0.273 OA
ATOM      9  H   UNL     1      -8.578   0.969  16.846  1.00  0.00     0.164 HD
BRANCH   7  10
ATOM     10  C   UNL     1     -10.037  -1.137  16.729  1.00  0.00     0.145 C 
BRANCH  10  11
ATOM     11  N   UNL     1      -9.938  -1.970  17.951  1.00  0.00    -0.320 NA
ATOM     12  H   UNL     1      -9.648  -1.362  18.720  1.00  0.00     0.119 HD
ATOM     13  H   UNL     1      -9.169  -2.632  17.834  1.00  0.00     0.119 HD
ENDBRANCH  10  11
BRANCH  10  14
ATOM     14  C   UNL     1     -11.027  -1.765  15.734  1.00  0.00     0.064 C 
BRANCH  14  15
ATOM     15  C   UNL     1     -10.522  -1.708  14.308  1.00  0.00    -0.046 A 
ATOM     16  C   UNL     1     -11.396  -1.393  13.257  1.00  0.00     0.007 A 
ATOM     17  C   UNL     1      -9.182  -1.989  14.013  1.00  0.00     0.007 A 
ATOM     18  C   UNL     1     -10.938  -1.354  11.940  1.00  0.00     0.046 A 
ATOM     19  C   UNL     1      -8.725  -1.961  12.694  1.00  0.00     0.046 A 
ATOM     20  C   UNL     1      -9.606  -1.638  11.669  1.00  0.00     0.115 A 
BRANCH  20  21
ATOM     21  O   UNL     1      -9.193  -1.589  10.370  1.00  0.00    -0.508 OA
ATOM     22  H   UNL     1      -9.385  -2.451   9.968  1.00  0.00     0.293 HD
ENDBRANCH  20  21
ENDBRANCH  14  15
ENDBRANCH  10  14
ENDBRANCH   7  10
ENDBRANCH   5   6
ENDBRANCH   1   5
BRANCH   3  23
ATOM     23  C   UNL     1      -7.880   3.581  14.256  1.00  0.00     0.216 C 
BRANCH  23  24
ATOM     24  C   UNL     1      -7.472   2.562  13.179  1.00  0.00     0.242 C 
ATOM     25  O   UNL     1      -7.802   1.375  13.289  1.00  0.00    -0.273 OA
BRANCH  24  26
ATOM     26  N   UNL     1      -6.771   3.021  12.081  1.00  0.00    -0.329 N 
ATOM     27  C   UNL     1      -5.484   3.668  12.247  1.00  0.00     0.120 C 
ATOM     28  C   UNL     1      -7.293   3.219  10.722  1.00  0.00     0.174 C 
ATOM     29  C   UNL     1      -5.436   4.692  11.127  1.00  0.00     0.024 C 
ATOM     30  C   UNL     1      -6.174   3.988  10.000  1.00  0.00     0.037 C 
BRANCH  28  31
ATOM     31  C   UNL     1      -7.592   1.901   9.981  1.00  0.00     0.243 C 
ATOM     32  O   UNL     1      -8.677   1.328  10.039  1.00  0.00    -0.273 OA
ATOM     33  N   UNL     1      -6.555   1.448   9.189  1.00  0.00    -0.341 N 
ATOM     34  H   UNL     1      -5.623   1.779   9.414  1.00  0.00     0.164 HD
BRANCH  33  35
ATOM     35  C   UNL     1      -6.617   0.120   8.575  1.00  0.00     0.192 C 
BRANCH  35  36
ATOM     36  C   UNL     1      -6.007   0.113   7.168  1.00  0.00     0.040 C 
BRANCH  36  37
ATOM     37  C   UNL     1      -6.916   0.592   6.015  1.00  0.00    -0.015 C 
ATOM     38  C   UNL     1      -8.400   0.610   6.382  1.00  0.00     0.007 C 
ATOM     39  C   UNL     1      -6.698  -0.194   4.720  1.00  0.00     0.007 C 
ENDBRANCH  36  37
ENDBRANCH  35  36
BRANCH  35  40
ATOM     40  C   UNL     1      -5.815  -0.822   9.476  1.00  0.00     0.326 C 
ATOM     41  O   UNL     1      -6.173  -1.259  10.560  1.00  0.00    -0.250 OA
BRANCH  40  42
ATOM     42  O   UNL     1      -4.597  -1.119   8.986  1.00  0.00    -0.480 OA
ATOM     43  H   UNL     1      -4.543  -2.096   9.034  1.00  0.00     0.296 HD
ENDBRANCH  40  42
ENDBRANCH  35  40
ENDBRANCH  33  35
ENDBRANCH  28  31
ENDBRANCH  24  26
ENDBRANCH  23  24
ENDBRANCH   3  23
TORSDOF 16
ENDMDL
MODEL 8
REMARK VINA RESULT:    -6.745      2.492      4.690
REMARK INTER + INTRA:         -14.916
REMARK INTER:                 -13.237
REMARK INTRA:                  -1.679
REMARK UNBOUND:                -2.453
REMARK SMILES CC(C)C[C@H](NC(=O)[C@@H]1CCCN1C(=O)CNC(=O)CNC(=O)[C@@H](N)Cc1ccc(O)cc1)C(=O)O
REMARK SMILES IDX 18 1 19 2 17 3 20 5 21 6 22 7 23 8 24 10 25 11 26 14 27 15
REMARK SMILES IDX 28 16 33 17 29 18 32 19 30 20 31 21 16 23 14 24 15 25 13 26
REMARK SMILES IDX 12 27 9 28 11 29 10 30 7 31 8 32 6 33 5 35 4 36 2 37 1 38
REMARK SMILES IDX 3 39 34 40 35 41 36 42
REMARK H PARENT 17 4 21 9 25 12 25 13 31 22 6 34 36 43
ROOT
ATOM      1  C   UNL     1      -8.037   2.151  12.564  1.00  0.00     0.239 C 
ATOM      2  O   UNL     1      -7.566   1.069  12.911  1.00  0.00    -0.273 OA
ATOM      3  N   UNL     1      -8.201   3.214  13.429  1.00  0.00    -0.345 N 
ATOM      4  H   UNL     1      -8.177   4.140  13.014  1.00  0.00     0.164 HD
ENDROOT
BRANCH   1   5
ATOM      5  C   UNL     1      -8.537   2.401  11.141  1.00  0.00     0.216 C 
BRANCH   5   6
ATOM      6  N   UNL     1      -7.978   1.385  10.269  1.00  0.00    -0.346 N 
ATOM      7  C   UNL     1      -6.840   1.624   9.534  1.00  0.00     0.237 C 
ATOM      8  O   UNL     1      -6.393   2.754   9.350  1.00  0.00    -0.273 OA
ATOM      9  H   UNL     1      -8.223   0.425  10.492  1.00  0.00     0.164 HD
BRANCH   7  10
ATOM     10  C   UNL     1      -6.246   0.366   8.858  1.00  0.00     0.145 C 
BRANCH  10  11
ATOM     11  N   UNL     1      -6.016  -0.649   9.913  1.00  0.00    -0.320 NA
ATOM     12  H   UNL     1      -5.186  -0.368  10.441  1.00  0.00     0.119 HD
ATOM     13  H   UNL     1      -5.759  -1.532   9.468  1.00  0.00     0.119 HD
ENDBRANCH  10  11
BRANCH  10  14
ATOM     14  C   UNL     1      -7.197  -0.186   7.784  1.00  0.00     0.064 C 
BRANCH  14  15
ATOM     15  C   UNL     1      -6.462  -0.618   6.533  1.00  0.00    -0.046 A 
ATOM     16  C   UNL     1      -6.789  -0.060   5.288  1.00  0.00     0.007 A 
ATOM     17  C   UNL     1      -5.459  -1.594   6.595  1.00  0.00     0.007 A 
ATOM     18  C   UNL     1      -6.124  -0.466   4.131  1.00  0.00     0.046 A 
ATOM     19  C   UNL     1      -4.801  -2.010   5.436  1.00  0.00     0.046 A 
ATOM     20  C   UNL     1      -5.136  -1.438   4.214  1.00  0.00     0.115 A 
BRANCH  20  21
ATOM     21  O   UNL     1      -4.505  -1.809   3.063  1.00  0.00    -0.508 OA
ATOM     22  H   UNL     1      -5.008  -2.544   2.677  1.00  0.00     0.293 HD
ENDBRANCH  20  21
ENDBRANCH  14  15
ENDBRANCH  10  14
ENDBRANCH   7  10
ENDBRANCH   5   6
ENDBRANCH   1   5
BRANCH   3  23
ATOM     23  C   UNL     1      -7.646   3.129  14.770  1.00  0.00     0.216 C 
BRANCH  23  24
ATOM     24  C   UNL     1      -8.768   2.831  15.778  1.00  0.00     0.242 C 
ATOM     25  O   UNL     1      -9.362   3.760  16.340  1.00  0.00    -0.273 OA
BRANCH  24  26
ATOM     26  N   UNL     1      -9.111   1.512  16.000  1.00  0.00    -0.329 N 
ATOM     27  C   UNL     1      -8.133   0.574  16.517  1.00  0.00     0.120 C 
ATOM     28  C   UNL     1     -10.300   0.813  15.494  1.00  0.00     0.174 C 
ATOM     29  C   UNL     1      -8.513  -0.749  15.875  1.00  0.00     0.024 C 
ATOM     30  C   UNL     1     -10.029  -0.666  15.813  1.00  0.00     0.037 C 
BRANCH  28  31
ATOM     31  C   UNL     1     -11.612   1.268  16.165  1.00  0.00     0.243 C 
ATOM     32  O   UNL     1     -11.763   1.316  17.383  1.00  0.00    -0.273 OA
ATOM     33  N   UNL     1     -12.587   1.681  15.279  1.00  0.00    -0.341 N 
ATOM     34  H   UNL     1     -12.519   1.343  14.325  1.00  0.00     0.164 HD
BRANCH  33  35
ATOM     35  C   UNL     1     -13.945   1.961  15.750  1.00  0.00     0.192 C 
BRANCH  35  36
ATOM     36  C   UNL     1     -14.505   3.253  15.140  1.00  0.00     0.040 C 
BRANCH  36  37
ATOM     37  C   UNL     1     -14.168   4.569  15.874  1.00  0.00    -0.015 C 
ATOM     38  C   UNL     1     -12.713   5.004  15.700  1.00  0.00     0.007 C 
ATOM     39  C   UNL     1     -14.539   4.534  17.359  1.00  0.00     0.007 C 
ENDBRANCH  36  37
ENDBRANCH  35  36
BRANCH  35  40
ATOM     40  C   UNL     1     -14.816   0.780  15.314  1.00  0.00     0.326 C 
ATOM     41  O   UNL     1     -15.624   0.187  16.014  1.00  0.00    -0.250 OA
BRANCH  40  42
ATOM     42  O   UNL     1     -14.587   0.388  14.048  1.00  0.00    -0.480 OA
ATOM     43  H   UNL     1     -15.446   0.030  13.741  1.00  0.00     0.296 HD
ENDBRANCH  40  42
ENDBRANCH  35  40
ENDBRANCH  33  35
ENDBRANCH  28  31
ENDBRANCH  24  26
ENDBRANCH  23  24
ENDBRANCH   3  23
TORSDOF 16
ENDMDL
MODEL 9
REMARK VINA RESULT:    -6.730      3.736      9.409
REMARK INTER + INTRA:         -14.888
REMARK INTER:                 -13.746
REMARK INTRA:                  -1.141
REMARK UNBOUND:                -2.453
REMARK SMILES CC(C)C[C@H](NC(=O)[C@@H]1CCCN1C(=O)CNC(=O)CNC(=O)[C@@H](N)Cc1ccc(O)cc1)C(=O)O
REMARK SMILES IDX 18 1 19 2 17 3 20 5 21 6 22 7 23 8 24 10 25 11 26 14 27 15
REMARK SMILES IDX 28 16 33 17 29 18 32 19 30 20 31 21 16 23 14 24 15 25 13 26
REMARK SMILES IDX 12 27 9 28 11 29 10 30 7 31 8 32 6 33 5 35 4 36 2 37 1 38
REMARK SMILES IDX 3 39 34 40 35 41 36 42
REMARK H PARENT 17 4 21 9 25 12 25 13 31 22 6 34 36 43
ROOT
ATOM      1  C   UNL     1      -9.649   3.627  16.224  1.00  0.00     0.239 C 
ATOM      2  O   UNL     1     -10.141   4.463  15.468  1.00  0.00    -0.273 OA
ATOM      3  N   UNL     1      -8.447   2.996  15.971  1.00  0.00    -0.345 N 
ATOM      4  H   UNL     1      -7.926   2.680  16.782  1.00  0.00     0.164 HD
ENDROOT
BRANCH   1   5
ATOM      5  C   UNL     1     -10.358   3.167  17.499  1.00  0.00     0.216 C 
BRANCH   5   6
ATOM      6  N   UNL     1     -11.753   2.919  17.188  1.00  0.00    -0.346 N 
ATOM      7  C   UNL     1     -12.189   1.668  16.816  1.00  0.00     0.237 C 
ATOM      8  O   UNL     1     -11.422   0.776  16.460  1.00  0.00    -0.273 OA
ATOM      9  H   UNL     1     -12.420   3.568  17.593  1.00  0.00     0.164 HD
BRANCH   7  10
ATOM     10  C   UNL     1     -13.727   1.522  16.764  1.00  0.00     0.145 C 
BRANCH  10  11
ATOM     11  N   UNL     1     -14.316   2.682  17.473  1.00  0.00    -0.320 NA
ATOM     12  H   UNL     1     -14.300   2.478  18.475  1.00  0.00     0.119 HD
ATOM     13  H   UNL     1     -15.307   2.744  17.232  1.00  0.00     0.119 HD
ENDBRANCH  10  11
BRANCH  10  14
ATOM     14  C   UNL     1     -14.230   1.472  15.312  1.00  0.00     0.064 C 
BRANCH  14  15
ATOM     15  C   UNL     1     -14.972   2.731  14.918  1.00  0.00    -0.046 A 
ATOM     16  C   UNL     1     -16.320   2.670  14.536  1.00  0.00     0.007 A 
ATOM     17  C   UNL     1     -14.320   3.971  14.907  1.00  0.00     0.007 A 
ATOM     18  C   UNL     1     -17.003   3.826  14.157  1.00  0.00     0.046 A 
ATOM     19  C   UNL     1     -14.999   5.126  14.518  1.00  0.00     0.046 A 
ATOM     20  C   UNL     1     -16.338   5.045  14.151  1.00  0.00     0.115 A 
BRANCH  20  21
ATOM     21  O   UNL     1     -17.038   6.154  13.777  1.00  0.00    -0.508 OA
ATOM     22  H   UNL     1     -16.822   6.338  12.848  1.00  0.00     0.293 HD
ENDBRANCH  20  21
ENDBRANCH  14  15
ENDBRANCH  10  14
ENDBRANCH   7  10
ENDBRANCH   5   6
ENDBRANCH   1   5
BRANCH   3  23
ATOM     23  C   UNL     1      -7.631   3.446  14.856  1.00  0.00     0.216 C 
BRANCH  23  24
ATOM     24  C   UNL     1      -7.660   2.395  13.734  1.00  0.00     0.242 C 
ATOM     25  O   UNL     1      -8.198   1.297  13.924  1.00  0.00    -0.273 OA
BRANCH  24  26
ATOM     26  N   UNL     1      -7.109   2.729  12.513  1.00  0.00    -0.329 N 
ATOM     27  C   UNL     1      -5.691   3.014  12.398  1.00  0.00     0.120 C 
ATOM     28  C   UNL     1      -7.832   3.144  11.303  1.00  0.00     0.174 C 
ATOM     29  C   UNL     1      -5.610   4.062  11.303  1.00  0.00     0.024 C 
ATOM     30  C   UNL     1      -6.727   3.646  10.360  1.00  0.00     0.037 C 
BRANCH  28  31
ATOM     31  C   UNL     1      -8.618   1.998  10.635  1.00  0.00     0.243 C 
ATOM     32  O   UNL     1      -9.782   1.727  10.916  1.00  0.00    -0.273 OA
ATOM     33  N   UNL     1      -7.921   1.338   9.640  1.00  0.00    -0.341 N 
ATOM     34  H   UNL     1      -6.909   1.400   9.666  1.00  0.00     0.164 HD
BRANCH  33  35
ATOM     35  C   UNL     1      -8.461   0.113   9.046  1.00  0.00     0.192 C 
BRANCH  35  36
ATOM     36  C   UNL     1      -8.723   0.276   7.544  1.00  0.00     0.040 C 
BRANCH  36  37
ATOM     37  C   UNL     1      -7.689   1.099   6.745  1.00  0.00    -0.015 C 
ATOM     38  C   UNL     1      -8.309   2.263   5.972  1.00  0.00     0.007 C 
ATOM     39  C   UNL     1      -6.835   0.238   5.812  1.00  0.00     0.007 C 
ENDBRANCH  36  37
ENDBRANCH  35  36
BRANCH  35  40
ATOM     40  C   UNL     1      -7.411  -0.980   9.259  1.00  0.00     0.326 C 
ATOM     41  O   UNL     1      -6.507  -0.959  10.081  1.00  0.00    -0.250 OA
BRANCH  40  42
ATOM     42  O   UNL     1      -7.531  -2.008   8.398  1.00  0.00    -0.480 OA
ATOM     43  H   UNL     1      -6.909  -2.686   8.736  1.00  0.00     0.296 HD
ENDBRANCH  40  42
ENDBRANCH  35  40
ENDBRANCH  33  35
ENDBRANCH  28  31
ENDBRANCH  24  26
ENDBRANCH  23  24
ENDBRANCH   3  23
TORSDOF 16
ENDMDL
