MODEL 1
REMARK VINA RESULT:    -8.733      0.000      0.000
REMARK INTER + INTRA:          -9.243
REMARK INTER:                  -9.243
REMARK INTRA:                   0.000
REMARK UNBOUND:                 0.000
REMARK SMILES CN1CC[C@]23c4c5ccc(O)c4O[C@H]2[C@@H](O)C=C[C@H]3[C@H]1C5
REMARK SMILES IDX 1 1 2 2 3 3 4 4 5 5 6 6 7 7 8 8 9 9 10 10 12 11 13 12 14 13
REMARK SMILES IDX 15 14 17 15 18 16 19 17 20 18 21 19 16 20 11 22
REMARK H PARENT 16 21 11 23
ROOT
ATOM      1  C   UNL     1      -6.506  -0.256   4.503  1.00  0.00     0.105 C 
ATOM      2  N   UNL     1      -6.350  -0.154   5.952  1.00  0.00    -0.302 NA
ATOM      3  C   UNL     1      -5.736  -1.358   6.509  1.00  0.00     0.085 C 
ATOM      4  C   UNL     1      -5.554  -1.280   8.034  1.00  0.00     0.032 C 
ATOM      5  C   UNL     1      -6.785  -0.678   8.756  1.00  0.00     0.048 C 
ATOM      6  C   UNL     1      -6.481   0.737   9.153  1.00  0.00     0.012 A 
ATOM      7  C   UNL     1      -6.683   1.874   8.389  1.00  0.00    -0.039 A 
ATOM      8  C   UNL     1      -6.313   3.098   8.951  1.00  0.00     0.008 A 
ATOM      9  C   UNL     1      -5.789   3.154  10.259  1.00  0.00     0.050 A 
ATOM     10  C   UNL     1      -5.676   1.991  11.027  1.00  0.00     0.158 A 
ATOM     11  C   UNL     1      -6.048   0.791  10.460  1.00  0.00     0.165 A 
ATOM     12  O   UNL     1      -6.128  -0.427  11.087  1.00  0.00    -0.482 OA
ATOM     13  C   UNL     1      -6.969  -1.232  10.186  1.00  0.00     0.217 C 
ATOM     14  C   UNL     1      -8.441  -1.249  10.699  1.00  0.00     0.178 C 
ATOM     15  C   UNL     1      -9.463  -0.572   9.833  1.00  0.00     0.004 C 
ATOM     16  C   UNL     1      -9.281  -0.312   8.528  1.00  0.00    -0.022 C 
ATOM     17  C   UNL     1      -7.999  -0.673   7.819  1.00  0.00     0.044 C 
ATOM     18  C   UNL     1      -7.612   0.263   6.620  1.00  0.00     0.068 C 
ATOM     19  C   UNL     1      -7.412   1.745   7.076  1.00  0.00     0.055 C 
ENDROOT
BRANCH  14  20
ATOM     20  O   UNL     1      -8.564  -0.709  12.016  1.00  0.00    -0.385 OA
ATOM     21  H   UNL     1      -9.503  -0.813  12.268  1.00  0.00     0.211 HD
ENDBRANCH  14  20
BRANCH  10  22
ATOM     22  O   UNL     1      -5.249   2.026  12.319  1.00  0.00    -0.504 OA
ATOM     23  H   UNL     1      -6.018   1.928  12.902  1.00  0.00     0.293 HD
ENDBRANCH  10  22
TORSDOF 2
ENDMDL
MODEL 2
REMARK VINA RESULT:    -8.185      2.873      4.799
REMARK INTER + INTRA:          -8.664
REMARK INTER:                  -8.664
REMARK INTRA:                   0.000
REMARK UNBOUND:                 0.000
REMARK SMILES CN1CC[C@]23c4c5ccc(O)c4O[C@H]2[C@@H](O)C=C[C@H]3[C@H]1C5
REMARK SMILES IDX 1 1 2 2 3 3 4 4 5 5 6 6 7 7 8 8 9 9 10 10 12 11 13 12 14 13
REMARK SMILES IDX 15 14 17 15 18 16 19 17 20 18 21 19 16 20 11 22
REMARK H PARENT 16 21 11 23
ROOT
ATOM      1  C   UNL     1      -5.791   4.590  12.635  1.00  0.00     0.105 C 
ATOM      2  N   UNL     1      -5.834   3.716  11.465  1.00  0.00    -0.302 NA
ATOM      3  C   UNL     1      -5.817   4.486  10.222  1.00  0.00     0.085 C 
ATOM      4  C   UNL     1      -5.858   3.593   8.971  1.00  0.00     0.032 C 
ATOM      5  C   UNL     1      -6.865   2.422   9.100  1.00  0.00     0.048 C 
ATOM      6  C   UNL     1      -6.113   1.152   9.367  1.00  0.00     0.012 A 
ATOM      7  C   UNL     1      -5.748   0.648  10.604  1.00  0.00    -0.039 A 
ATOM      8  C   UNL     1      -5.033  -0.553  10.622  1.00  0.00     0.008 A 
ATOM      9  C   UNL     1      -4.737  -1.226   9.418  1.00  0.00     0.050 A 
ATOM     10  C   UNL     1      -5.194  -0.724   8.195  1.00  0.00     0.158 A 
ATOM     11  C   UNL     1      -5.900   0.459   8.194  1.00  0.00     0.165 A 
ATOM     12  O   UNL     1      -6.531   1.041   7.123  1.00  0.00    -0.482 OA
ATOM     13  C   UNL     1      -7.464   1.997   7.742  1.00  0.00     0.217 C 
ATOM     14  C   UNL     1      -8.894   1.379   7.819  1.00  0.00     0.178 C 
ATOM     15  C   UNL     1      -9.434   1.107   9.193  1.00  0.00     0.004 C 
ATOM     16  C   UNL     1      -8.968   1.692  10.308  1.00  0.00    -0.022 C 
ATOM     17  C   UNL     1      -7.825   2.676  10.268  1.00  0.00     0.044 C 
ATOM     18  C   UNL     1      -6.931   2.715  11.558  1.00  0.00     0.068 C 
ATOM     19  C   UNL     1      -6.258   1.334  11.845  1.00  0.00     0.055 C 
ENDROOT
BRANCH  14  20
ATOM     20  O   UNL     1      -9.005   0.172   7.064  1.00  0.00    -0.385 OA
ATOM     21  H   UNL     1      -8.591  -0.529   7.605  1.00  0.00     0.211 HD
ENDBRANCH  14  20
BRANCH  10  22
ATOM     22  O   UNL     1      -4.991  -1.394   7.028  1.00  0.00    -0.504 OA
ATOM     23  H   UNL     1      -5.017  -0.756   6.297  1.00  0.00     0.293 HD
ENDBRANCH  10  22
TORSDOF 2
ENDMDL
MODEL 3
REMARK VINA RESULT:    -8.138      1.704      2.280
REMARK INTER + INTRA:          -8.614
REMARK INTER:                  -8.614
REMARK INTRA:                   0.000
REMARK UNBOUND:                 0.000
REMARK SMILES CN1CC[C@]23c4c5ccc(O)c4O[C@H]2[C@@H](O)C=C[C@H]3[C@H]1C5
REMARK SMILES IDX 1 1 2 2 3 3 4 4 5 5 6 6 7 7 8 8 9 9 10 10 12 11 13 12 14 13
REMARK SMILES IDX 15 14 17 15 18 16 19 17 20 18 21 19 16 20 11 22
REMARK H PARENT 16 21 11 23
ROOT
ATOM      1  C   UNL     1      -5.443  -0.767   6.783  1.00  0.00     0.105 C 
ATOM      2  N   UNL     1      -5.611  -0.037   8.036  1.00  0.00    -0.302 NA
ATOM      3  C   UNL     1      -5.287  -0.873   9.191  1.00  0.00     0.085 C 
ATOM      4  C   UNL     1      -5.451  -0.130  10.527  1.00  0.00     0.032 C 
ATOM      5  C   UNL     1      -6.735   0.736  10.580  1.00  0.00     0.048 C 
ATOM      6  C   UNL     1      -6.365   2.179  10.399  1.00  0.00     0.012 A 
ATOM      7  C   UNL     1      -6.251   2.862   9.200  1.00  0.00    -0.039 A 
ATOM      8  C   UNL     1      -5.876   4.207   9.262  1.00  0.00     0.008 A 
ATOM      9  C   UNL     1      -5.663   4.832  10.507  1.00  0.00     0.050 A 
ATOM     10  C   UNL     1      -5.867   4.128  11.698  1.00  0.00     0.158 A 
ATOM     11  C   UNL     1      -6.239   2.803  11.622  1.00  0.00     0.165 A 
ATOM     12  O   UNL     1      -6.603   1.988  12.664  1.00  0.00    -0.482 OA
ATOM     13  C   UNL     1      -7.305   0.872  12.009  1.00  0.00     0.217 C 
ATOM     14  C   UNL     1      -8.847   1.091  12.082  1.00  0.00     0.178 C 
ATOM     15  C   UNL     1      -9.556   1.321  10.779  1.00  0.00     0.004 C 
ATOM     16  C   UNL     1      -9.051   0.976   9.584  1.00  0.00    -0.022 C 
ATOM     17  C   UNL     1      -7.693   0.332   9.453  1.00  0.00     0.044 C 
ATOM     18  C   UNL     1      -6.934   0.640   8.114  1.00  0.00     0.068 C 
ATOM     19  C   UNL     1      -6.670   2.170   7.929  1.00  0.00     0.055 C 
ENDROOT
BRANCH  14  20
ATOM     20  O   UNL     1      -9.203   2.158  12.962  1.00  0.00    -0.385 OA
ATOM     21  H   UNL     1      -8.770   2.960  12.610  1.00  0.00     0.211 HD
ENDBRANCH  14  20
BRANCH  10  22
ATOM     22  O   UNL     1      -5.745   4.729  12.914  1.00  0.00    -0.504 OA
ATOM     23  H   UNL     1      -5.143   4.200  13.461  1.00  0.00     0.293 HD
ENDBRANCH  10  22
TORSDOF 2
ENDMDL
MODEL 4
REMARK VINA RESULT:    -7.381      2.851      4.815
REMARK INTER + INTRA:          -7.813
REMARK INTER:                  -7.813
REMARK INTRA:                   0.000
REMARK UNBOUND:                 0.000
REMARK SMILES CN1CC[C@]23c4c5ccc(O)c4O[C@H]2[C@@H](O)C=C[C@H]3[C@H]1C5
REMARK SMILES IDX 1 1 2 2 3 3 4 4 5 5 6 6 7 7 8 8 9 9 10 10 12 11 13 12 14 13
REMARK SMILES IDX 15 14 17 15 18 16 19 17 20 18 21 19 16 20 11 22
REMARK H PARENT 16 21 11 23
ROOT
ATOM      1  C   UNL     1      -6.516   3.806  13.538  1.00  0.00     0.105 C 
ATOM      2  N   UNL     1      -7.118   3.166  12.371  1.00  0.00    -0.302 NA
ATOM      3  C   UNL     1      -8.521   2.832  12.608  1.00  0.00     0.085 C 
ATOM      4  C   UNL     1      -9.184   2.160  11.395  1.00  0.00     0.032 C 
ATOM      5  C   UNL     1      -8.276   1.098  10.724  1.00  0.00     0.048 C 
ATOM      6  C   UNL     1      -7.702   1.668   9.461  1.00  0.00     0.012 A 
ATOM      7  C   UNL     1      -6.528   2.392   9.335  1.00  0.00    -0.039 A 
ATOM      8  C   UNL     1      -6.186   2.843   8.057  1.00  0.00     0.008 A 
ATOM      9  C   UNL     1      -7.000   2.532   6.949  1.00  0.00     0.050 A 
ATOM     10  C   UNL     1      -8.135   1.730   7.106  1.00  0.00     0.158 A 
ATOM     11  C   UNL     1      -8.458   1.290   8.372  1.00  0.00     0.165 A 
ATOM     12  O   UNL     1      -9.449   0.402   8.707  1.00  0.00    -0.482 OA
ATOM     13  C   UNL     1      -9.078  -0.042  10.061  1.00  0.00     0.217 C 
ATOM     14  C   UNL     1      -8.338  -1.413   9.993  1.00  0.00     0.178 C 
ATOM     15  C   UNL     1      -6.895  -1.418  10.405  1.00  0.00     0.004 C 
ATOM     16  C   UNL     1      -6.332  -0.465  11.165  1.00  0.00    -0.022 C 
ATOM     17  C   UNL     1      -7.120   0.723  11.660  1.00  0.00     0.044 C 
ATOM     18  C   UNL     1      -6.289   2.038  11.865  1.00  0.00     0.068 C 
ATOM     19  C   UNL     1      -5.627   2.526  10.536  1.00  0.00     0.055 C 
ENDROOT
BRANCH  14  20
ATOM     20  O   UNL     1      -8.420  -2.010   8.699  1.00  0.00    -0.385 OA
ATOM     21  H   UNL     1      -8.603  -2.959   8.845  1.00  0.00     0.211 HD
ENDBRANCH  14  20
BRANCH  10  22
ATOM     22  O   UNL     1      -8.894   1.349   6.042  1.00  0.00    -0.504 OA
ATOM     23  H   UNL     1      -9.748   1.806   6.092  1.00  0.00     0.293 HD
ENDBRANCH  10  22
TORSDOF 2
ENDMDL
MODEL 5
REMARK VINA RESULT:    -7.243      2.613      4.605
REMARK INTER + INTRA:          -7.666
REMARK INTER:                  -7.666
REMARK INTRA:                   0.000
REMARK UNBOUND:                 0.000
REMARK SMILES CN1CC[C@]23c4c5ccc(O)c4O[C@H]2[C@@H](O)C=C[C@H]3[C@H]1C5
REMARK SMILES IDX 1 1 2 2 3 3 4 4 5 5 6 6 7 7 8 8 9 9 10 10 12 11 13 12 14 13
REMARK SMILES IDX 15 14 17 15 18 16 19 17 20 18 21 19 16 20 11 22
REMARK H PARENT 16 21 11 23
ROOT
ATOM      1  C   UNL     1      -5.531   2.522  12.632  1.00  0.00     0.105 C 
ATOM      2  N   UNL     1      -6.095   2.011  11.385  1.00  0.00    -0.302 NA
ATOM      3  C   UNL     1      -7.251   2.797  10.959  1.00  0.00     0.085 C 
ATOM      4  C   UNL     1      -7.865   2.285   9.646  1.00  0.00     0.032 C 
ATOM      5  C   UNL     1      -7.962   0.740   9.589  1.00  0.00     0.048 C 
ATOM      6  C   UNL     1      -6.875   0.209   8.702  1.00  0.00     0.012 A 
ATOM      7  C   UNL     1      -5.587  -0.132   9.080  1.00  0.00    -0.039 A 
ATOM      8  C   UNL     1      -4.727  -0.595   8.081  1.00  0.00     0.008 A 
ATOM      9  C   UNL     1      -5.182  -0.734   6.754  1.00  0.00     0.050 A 
ATOM     10  C   UNL     1      -6.514  -0.454   6.429  1.00  0.00     0.158 A 
ATOM     11  C   UNL     1      -7.351  -0.002   7.426  1.00  0.00     0.165 A 
ATOM     12  O   UNL     1      -8.705   0.205   7.333  1.00  0.00    -0.482 OA
ATOM     13  C   UNL     1      -9.151   0.246   8.736  1.00  0.00     0.217 C 
ATOM     14  C   UNL     1      -9.731  -1.139   9.156  1.00  0.00     0.178 C 
ATOM     15  C   UNL     1      -8.967  -1.898  10.202  1.00  0.00     0.004 C 
ATOM     16  C   UNL     1      -8.089  -1.330  11.044  1.00  0.00    -0.022 C 
ATOM     17  C   UNL     1      -7.781   0.147  10.992  1.00  0.00     0.044 C 
ATOM     18  C   UNL     1      -6.330   0.543  11.442  1.00  0.00     0.068 C 
ATOM     19  C   UNL     1      -5.237  -0.124  10.546  1.00  0.00     0.055 C 
ENDROOT
BRANCH  14  20
ATOM     20  O   UNL     1      -9.918  -2.010   8.040  1.00  0.00    -0.385 OA
ATOM     21  H   UNL     1     -10.720  -1.695   7.577  1.00  0.00     0.211 HD
ENDBRANCH  14  20
BRANCH  10  22
ATOM     22  O   UNL     1      -7.000  -0.656   5.174  1.00  0.00    -0.504 OA
ATOM     23  H   UNL     1      -7.607  -1.412   5.195  1.00  0.00     0.293 HD
ENDBRANCH  10  22
TORSDOF 2
ENDMDL
MODEL 6
REMARK VINA RESULT:    -6.992      1.710      3.881
REMARK INTER + INTRA:          -7.400
REMARK INTER:                  -7.400
REMARK INTRA:                   0.000
REMARK UNBOUND:                 0.000
REMARK SMILES CN1CC[C@]23c4c5ccc(O)c4O[C@H]2[C@@H](O)C=C[C@H]3[C@H]1C5
REMARK SMILES IDX 1 1 2 2 3 3 4 4 5 5 6 6 7 7 8 8 9 9 10 10 12 11 13 12 14 13
REMARK SMILES IDX 15 14 17 15 18 16 19 17 20 18 21 19 16 20 11 22
REMARK H PARENT 16 21 11 23
ROOT
ATOM      1  C   UNL     1      -6.873   0.367   5.662  1.00  0.00     0.105 C 
ATOM      2  N   UNL     1      -7.441   0.444   7.005  1.00  0.00    -0.302 NA
ATOM      3  C   UNL     1      -8.653   1.261   7.028  1.00  0.00     0.085 C 
ATOM      4  C   UNL     1      -9.277   1.358   8.430  1.00  0.00     0.032 C 
ATOM      5  C   UNL     1      -8.222   1.572   9.545  1.00  0.00     0.048 C 
ATOM      6  C   UNL     1      -8.010   0.280  10.277  1.00  0.00     0.012 A 
ATOM      7  C   UNL     1      -7.106  -0.718   9.955  1.00  0.00    -0.039 A 
ATOM      8  C   UNL     1      -7.086  -1.853  10.770  1.00  0.00     0.008 A 
ATOM      9  C   UNL     1      -7.936  -1.942  11.892  1.00  0.00     0.050 A 
ATOM     10  C   UNL     1      -8.777  -0.877  12.229  1.00  0.00     0.158 A 
ATOM     11  C   UNL     1      -8.784   0.237  11.417  1.00  0.00     0.165 A 
ATOM     12  O   UNL     1      -9.439   1.420  11.647  1.00  0.00    -0.482 OA
ATOM     13  C   UNL     1      -8.773   2.373  10.744  1.00  0.00     0.217 C 
ATOM     14  C   UNL     1      -7.708   3.200  11.528  1.00  0.00     0.178 C 
ATOM     15  C   UNL     1      -6.273   2.981  11.144  1.00  0.00     0.004 C 
ATOM     16  C   UNL     1      -5.886   2.453   9.972  1.00  0.00    -0.022 C 
ATOM     17  C   UNL     1      -6.886   2.011   8.932  1.00  0.00     0.044 C 
ATOM     18  C   UNL     1      -6.420   0.821   8.020  1.00  0.00     0.068 C 
ATOM     19  C   UNL     1      -6.112  -0.467   8.850  1.00  0.00     0.055 C 
ENDROOT
BRANCH  14  20
ATOM     20  O   UNL     1      -7.810   3.018  12.940  1.00  0.00    -0.385 OA
ATOM     21  H   UNL     1      -8.729   2.733  13.114  1.00  0.00     0.211 HD
ENDBRANCH  14  20
BRANCH  10  22
ATOM     22  O   UNL     1      -9.549  -0.903  13.350  1.00  0.00    -0.504 OA
ATOM     23  H   UNL     1      -9.059  -0.480  14.073  1.00  0.00     0.293 HD
ENDBRANCH  10  22
TORSDOF 2
ENDMDL
MODEL 7
REMARK VINA RESULT:    -6.742      2.124      2.759
REMARK INTER + INTRA:          -7.136
REMARK INTER:                  -7.136
REMARK INTRA:                   0.000
REMARK UNBOUND:                 0.000
REMARK SMILES CN1CC[C@]23c4c5ccc(O)c4O[C@H]2[C@@H](O)C=C[C@H]3[C@H]1C5
REMARK SMILES IDX 1 1 2 2 3 3 4 4 5 5 6 6 7 7 8 8 9 9 10 10 12 11 13 12 14 13
REMARK SMILES IDX 15 14 17 15 18 16 19 17 20 18 21 19 16 20 11 22
REMARK H PARENT 16 21 11 23
ROOT
ATOM      1  C   UNL     1      -7.560  -0.137   6.710  1.00  0.00     0.105 C 
ATOM      2  N   UNL     1      -7.578  -0.114   8.170  1.00  0.00    -0.302 NA
ATOM      3  C   UNL     1      -6.799  -1.216   8.731  1.00  0.00     0.085 C 
ATOM      4  C   UNL     1      -6.795  -1.217  10.269  1.00  0.00     0.032 C 
ATOM      5  C   UNL     1      -8.189  -0.916  10.874  1.00  0.00     0.048 C 
ATOM      6  C   UNL     1      -8.215   0.498  11.376  1.00  0.00     0.012 A 
ATOM      7  C   UNL     1      -8.558   1.628  10.654  1.00  0.00    -0.039 A 
ATOM      8  C   UNL     1      -8.498   2.856  11.318  1.00  0.00     0.008 A 
ATOM      9  C   UNL     1      -8.134   2.915  12.679  1.00  0.00     0.050 A 
ATOM     10  C   UNL     1      -7.873   1.741  13.394  1.00  0.00     0.158 A 
ATOM     11  C   UNL     1      -7.940   0.537  12.726  1.00  0.00     0.165 A 
ATOM     12  O   UNL     1      -7.841  -0.716  13.275  1.00  0.00    -0.482 OA
ATOM     13  C   UNL     1      -8.408  -1.598  12.242  1.00  0.00     0.217 C 
ATOM     14  C   UNL     1      -9.892  -1.935  12.579  1.00  0.00     0.178 C 
ATOM     15  C   UNL     1     -10.932  -1.403  11.636  1.00  0.00     0.004 C 
ATOM     16  C   UNL     1     -10.671  -1.018  10.377  1.00  0.00    -0.022 C 
ATOM     17  C   UNL     1      -9.276  -1.074   9.804  1.00  0.00     0.044 C 
ATOM     18  C   UNL     1      -8.960   0.004   8.708  1.00  0.00     0.068 C 
ATOM     19  C   UNL     1      -9.106   1.460   9.260  1.00  0.00     0.055 C 
ENDROOT
BRANCH  14  20
ATOM     20  O   UNL     1     -10.256  -1.527  13.898  1.00  0.00    -0.385 OA
ATOM     21  H   UNL     1      -9.845  -0.651  14.038  1.00  0.00     0.211 HD
ENDBRANCH  14  20
BRANCH  10  22
ATOM     22  O   UNL     1      -7.598   1.762  14.727  1.00  0.00    -0.504 OA
ATOM     23  H   UNL     1      -7.839   2.634  15.078  1.00  0.00     0.293 HD
ENDBRANCH  10  22
TORSDOF 2
ENDMDL
MODEL 8
REMARK VINA RESULT:    -6.736      2.839      4.992
REMARK INTER + INTRA:          -7.130
REMARK INTER:                  -7.130
REMARK INTRA:                   0.000
REMARK UNBOUND:                 0.000
REMARK SMILES CN1CC[C@]23c4c5ccc(O)c4O[C@H]2[C@@H](O)C=C[C@H]3[C@H]1C5
REMARK SMILES IDX 1 1 2 2 3 3 4 4 5 5 6 6 7 7 8 8 9 9 10 10 12 11 13 12 14 13
REMARK SMILES IDX 15 14 17 15 18 16 19 17 20 18 21 19 16 20 11 22
REMARK H PARENT 16 21 11 23
ROOT
ATOM      1  C   UNL     1      -8.838  -0.661   8.304  1.00  0.00     0.105 C 
ATOM      2  N   UNL     1      -8.697   0.058   9.568  1.00  0.00    -0.302 NA
ATOM      3  C   UNL     1      -9.153   1.442   9.449  1.00  0.00     0.085 C 
ATOM      4  C   UNL     1      -9.021   2.225  10.766  1.00  0.00     0.032 C 
ATOM      5  C   UNL     1      -7.684   1.949  11.498  1.00  0.00     0.048 C 
ATOM      6  C   UNL     1      -7.936   1.028  12.656  1.00  0.00     0.012 A 
ATOM      7  C   UNL     1      -7.924  -0.356  12.633  1.00  0.00    -0.039 A 
ATOM      8  C   UNL     1      -8.203  -1.020  13.831  1.00  0.00     0.008 A 
ATOM      9  C   UNL     1      -8.449  -0.290  15.011  1.00  0.00     0.050 A 
ATOM     10  C   UNL     1      -8.373   1.107  15.009  1.00  0.00     0.158 A 
ATOM     11  C   UNL     1      -8.094   1.747  13.821  1.00  0.00     0.165 A 
ATOM     12  O   UNL     1      -7.856   3.087  13.644  1.00  0.00    -0.482 OA
ATOM     13  C   UNL     1      -7.197   3.156  12.329  1.00  0.00     0.217 C 
ATOM     14  C   UNL     1      -5.651   3.249  12.509  1.00  0.00     0.178 C 
ATOM     15  C   UNL     1      -4.846   2.081  12.019  1.00  0.00     0.004 C 
ATOM     16  C   UNL     1      -5.298   1.185  11.126  1.00  0.00    -0.022 C 
ATOM     17  C   UNL     1      -6.688   1.275  10.546  1.00  0.00     0.044 C 
ATOM     18  C   UNL     1      -7.336  -0.098  10.149  1.00  0.00     0.068 C 
ATOM     19  C   UNL     1      -7.477  -1.057  11.376  1.00  0.00     0.055 C 
ENDROOT
BRANCH  14  20
ATOM     20  O   UNL     1      -5.275   3.495  13.864  1.00  0.00    -0.385 OA
ATOM     21  H   UNL     1      -4.299   3.547  13.874  1.00  0.00     0.211 HD
ENDBRANCH  14  20
BRANCH  10  22
ATOM     22  O   UNL     1      -8.527   1.833  16.150  1.00  0.00    -0.504 OA
ATOM     23  H   UNL     1      -9.467   2.049  16.254  1.00  0.00     0.293 HD
ENDBRANCH  10  22
TORSDOF 2
ENDMDL
MODEL 9
REMARK VINA RESULT:    -6.698      2.648      4.502
REMARK INTER + INTRA:          -7.090
REMARK INTER:                  -7.090
REMARK INTRA:                   0.000
REMARK UNBOUND:                 0.000
REMARK SMILES CN1CC[C@]23c4c5ccc(O)c4O[C@H]2[C@@H](O)C=C[C@H]3[C@H]1C5
REMARK SMILES IDX 1 1 2 2 3 3 4 4 5 5 6 6 7 7 8 8 9 9 10 10 12 11 13 12 14 13
REMARK SMILES IDX 15 14 17 15 18 16 19 17 20 18 21 19 16 20 11 22
REMARK H PARENT 16 21 11 23
ROOT
ATOM      1  C   UNL     1     -10.300  -0.703  13.215  1.00  0.00     0.105 C 
ATOM      2  N   UNL     1      -9.562  -0.022  12.154  1.00  0.00    -0.302 NA
ATOM      3  C   UNL     1     -10.282  -0.076  10.883  1.00  0.00     0.085 C 
ATOM      4  C   UNL     1      -9.532   0.637   9.745  1.00  0.00     0.032 C 
ATOM      5  C   UNL     1      -8.012   0.336   9.746  1.00  0.00     0.048 C 
ATOM      6  C   UNL     1      -7.275   1.521  10.298  1.00  0.00     0.012 A 
ATOM      7  C   UNL     1      -6.976   1.766  11.628  1.00  0.00    -0.039 A 
ATOM      8  C   UNL     1      -6.290   2.947  11.923  1.00  0.00     0.008 A 
ATOM      9  C   UNL     1      -5.896   3.822  10.890  1.00  0.00     0.050 A 
ATOM     10  C   UNL     1      -6.147   3.498   9.552  1.00  0.00     0.158 A 
ATOM     11  C   UNL     1      -6.822   2.328   9.276  1.00  0.00     0.165 A 
ATOM     12  O   UNL     1      -7.050   1.781   8.039  1.00  0.00    -0.482 OA
ATOM     13  C   UNL     1      -7.393   0.380   8.332  1.00  0.00     0.217 C 
ATOM     14  C   UNL     1      -6.144  -0.532   8.133  1.00  0.00     0.178 C 
ATOM     15  C   UNL     1      -5.591  -1.191   9.363  1.00  0.00     0.004 C 
ATOM     16  C   UNL     1      -6.291  -1.364  10.496  1.00  0.00    -0.022 C 
ATOM     17  C   UNL     1      -7.714  -0.880  10.631  1.00  0.00     0.044 C 
ATOM     18  C   UNL     1      -8.146  -0.472  12.083  1.00  0.00     0.068 C 
ATOM     19  C   UNL     1      -7.273   0.697  12.647  1.00  0.00     0.055 C 
ENDROOT
BRANCH  14  20
ATOM     20  O   UNL     1      -5.069   0.153   7.489  1.00  0.00    -0.385 OA
ATOM     21  H   UNL     1      -4.277  -0.001   8.040  1.00  0.00     0.211 HD
ENDBRANCH  14  20
BRANCH  10  22
ATOM     22  O   UNL     1      -5.709   4.284   8.532  1.00  0.00    -0.504 OA
ATOM     23  H   UNL     1      -6.195   5.123   8.557  1.00  0.00     0.293 HD
ENDBRANCH  10  22
TORSDOF 2
ENDMDL
