MODEL 1
REMARK VINA RESULT:    -9.444      0.000      0.000
REMARK INTER + INTRA:         -11.346
REMARK INTER:                 -11.101
REMARK INTRA:                  -0.245
REMARK UNBOUND:                -0.245
REMARK  Name = 
REMARK  4 active torsions:
REMARK  status: ('A' for Active; 'I' for Inactive)
REMARK    1  A    between atoms: C_2  and  C_3
REMARK    2  A    between atoms: C_3  and  N_4
REMARK    3  A    between atoms: C_14  and  O_17
REMARK    4  A    between atoms: C_23  and  O_24
REMARK                            x       y       z     vdW  Elec       q    Type
REMARK                         _______ _______ _______ _____ _____    ______ ____
ROOT
ATOM      1  N   UNL     1      -6.191  -0.167   5.947  0.00  0.00    +0.000 NA
ATOM      2  C   UNL     1      -5.433  -1.253   6.570  0.00  0.00    +0.000 C 
ATOM      3  C   UNL     1      -5.267  -1.079   8.092  0.00  0.00    +0.000 C 
ATOM      4  C   UNL     1      -6.553  -0.563   8.792  0.00  0.00    +0.000 C 
ATOM      5  C   UNL     1      -7.747  -0.754   7.854  0.00  0.00    +0.000 C 
ATOM      6  C   UNL     1      -7.477   0.174   6.623  0.00  0.00    +0.000 C 
ATOM      7  C   UNL     1      -7.377   1.696   6.985  0.00  0.00    +0.000 C 
ATOM      8  C   UNL     1      -6.670   1.957   8.290  0.00  0.00    +0.000 A 
ATOM      9  C   UNL     1      -6.380   0.883   9.111  0.00  0.00    +0.000 A 
ATOM     10  C   UNL     1      -5.928   1.033  10.404  0.00  0.00    +0.000 A 
ATOM     11  C   UNL     1      -5.644   2.282  10.904  0.00  0.00    +0.000 A 
ATOM     12  C   UNL     1      -5.859   3.392  10.087  0.00  0.00    +0.000 A 
ATOM     13  C   UNL     1      -6.390   3.233   8.789  0.00  0.00    +0.000 A 
ATOM     14  O   UNL     1      -5.861  -0.161  11.081  0.00  0.00    +0.000 OA
ATOM     15  C   UNL     1      -6.664  -1.050  10.247  0.00  0.00    +0.000 C 
ATOM     16  C   UNL     1      -8.107  -1.107  10.768  0.00  0.00    +0.000 C 
ATOM     17  O   UNL     1      -8.383  -0.979  11.964  0.00  0.00    +0.000 OA
ATOM     18  C   UNL     1      -9.191  -1.479   9.781  0.00  0.00    +0.000 C 
ATOM     19  C   UNL     1      -9.120  -0.608   8.532  0.00  0.00    +0.000 C 
ATOM     20  H   UNL     1      -4.426  -1.318   6.142  0.00  0.00    +0.000 HD
ATOM     21  H   UNL     1      -5.913  -2.220   6.367  0.00  0.00    +0.000 HD
ATOM     22  H   UNL     1      -4.413  -0.417   8.285  0.00  0.00    +0.000 HD
ATOM     23  H   UNL     1      -4.990  -2.061   8.495  0.00  0.00    +0.000 HD
ATOM     24  H   UNL     1      -7.744  -1.798   7.505  0.00  0.00    +0.000 HD
ATOM     25  H   UNL     1      -8.313   0.046   5.921  0.00  0.00    +0.000 HD
ATOM     26  H   UNL     1      -8.391   2.107   7.054  0.00  0.00    +0.000 HD
ATOM     27  H   UNL     1      -6.878   2.250   6.180  0.00  0.00    +0.000 HD
ATOM     28  H   UNL     1      -5.651   4.387  10.470  0.00  0.00    +0.000 HD
ATOM     29  H   UNL     1      -6.603   4.114   8.190  0.00  0.00    +0.000 HD
ATOM     30  H   UNL     1      -6.266  -2.066  10.357  0.00  0.00    +0.000 HD
ATOM     31  H   UNL     1      -9.076  -2.539   9.532  0.00  0.00    +0.000 HD
ATOM     32  H   UNL     1     -10.159  -1.345  10.277  0.00  0.00    +0.000 HD
ATOM     33  H   UNL     1      -9.889  -0.945   7.825  0.00  0.00    +0.000 HD
ENDROOT
BRANCH   1  34
ATOM     34  C   UNL     1      -6.370  -0.351   4.502  0.00  0.00    +0.000 C 
ATOM     35  H   UNL     1      -6.305   0.623   3.999  0.00  0.00    +0.000 HD
ATOM     36  H   UNL     1      -7.366  -0.755   4.284  0.00  0.00    +0.000 HD
BRANCH  34  38
ATOM     37  C   UNL     1      -4.880  -1.125   2.626  0.00  0.00    +0.000 C 
ATOM     38  C   UNL     1      -5.289  -1.200   3.899  0.00  0.00    +0.000 C 
ATOM     39  H   UNL     1      -4.089  -1.772   2.261  0.00  0.00    +0.000 HD
ATOM     40  H   UNL     1      -5.322  -0.426   1.924  0.00  0.00    +0.000 HD
ATOM     41  H   UNL     1      -4.814  -1.916   4.567  0.00  0.00    +0.000 HD
ENDBRANCH  34  38
ENDBRANCH   1  34
BRANCH  11  42
ATOM     42  O   UNL     1      -5.195   2.451  12.177  0.00  0.00    +0.000 OA
ATOM     43  H   UNL     1      -4.896   1.568  12.469  0.00  0.00    +0.000 HD
ENDBRANCH  11  42
BRANCH  19  44
ATOM     44  O   UNL     1      -9.440   0.731   8.856  0.00  0.00    +0.000 OA
ATOM     45  H   UNL     1     -10.298   0.967   8.460  0.00  0.00    +0.000 HD
ENDBRANCH  19  44
TORSDOF 4
ENDMDL
MODEL 2
REMARK VINA RESULT:    -8.692      1.518      1.967
REMARK INTER + INTRA:         -10.462
REMARK INTER:                 -10.165
REMARK INTRA:                  -0.297
REMARK UNBOUND:                -0.245
REMARK  Name = 
REMARK  4 active torsions:
REMARK  status: ('A' for Active; 'I' for Inactive)
REMARK    1  A    between atoms: C_2  and  C_3
REMARK    2  A    between atoms: C_3  and  N_4
REMARK    3  A    between atoms: C_14  and  O_17
REMARK    4  A    between atoms: C_23  and  O_24
REMARK                            x       y       z     vdW  Elec       q    Type
REMARK                         _______ _______ _______ _____ _____    ______ ____
ROOT
ATOM      1  N   UNL     1      -5.450  -0.139   7.919  0.00  0.00    +0.000 NA
ATOM      2  C   UNL     1      -5.083  -0.981   9.059  0.00  0.00    +0.000 C 
ATOM      3  C   UNL     1      -5.359  -0.312  10.419  0.00  0.00    +0.000 C 
ATOM      4  C   UNL     1      -6.706   0.459  10.458  0.00  0.00    +0.000 C 
ATOM      5  C   UNL     1      -7.576   0.010   9.283  0.00  0.00    +0.000 C 
ATOM      6  C   UNL     1      -6.815   0.459   7.991  0.00  0.00    +0.000 C 
ATOM      7  C   UNL     1      -6.608   2.009   7.884  0.00  0.00    +0.000 C 
ATOM      8  C   UNL     1      -6.296   2.666   9.204  0.00  0.00    +0.000 A 
ATOM      9  C   UNL     1      -6.427   1.920  10.360  0.00  0.00    +0.000 A 
ATOM     10  C   UNL     1      -6.368   2.478  11.618  0.00  0.00    +0.000 A 
ATOM     11  C   UNL     1      -6.069   3.811  11.778  0.00  0.00    +0.000 A 
ATOM     12  C   UNL     1      -5.863   4.589  10.639  0.00  0.00    +0.000 A 
ATOM     13  C   UNL     1      -5.996   4.024   9.353  0.00  0.00    +0.000 A 
ATOM     14  O   UNL     1      -6.683   1.580  12.609  0.00  0.00    +0.000 OA
ATOM     15  C   UNL     1      -7.319   0.494  11.869  0.00  0.00    +0.000 C 
ATOM     16  C   UNL     1      -8.845   0.671  11.872  0.00  0.00    +0.000 C 
ATOM     17  O   UNL     1      -9.446   1.205  12.808  0.00  0.00    +0.000 OA
ATOM     18  C   UNL     1      -9.623   0.032  10.744  0.00  0.00    +0.000 C 
ATOM     19  C   UNL     1      -9.053   0.429   9.387  0.00  0.00    +0.000 C 
ATOM     20  H   UNL     1      -4.014  -1.225   9.032  0.00  0.00    +0.000 HD
ATOM     21  H   UNL     1      -5.615  -1.940   9.013  0.00  0.00    +0.000 HD
ATOM     22  H   UNL     1      -4.515   0.343  10.673  0.00  0.00    +0.000 HD
ATOM     23  H   UNL     1      -5.363  -1.111  11.171  0.00  0.00    +0.000 HD
ATOM     24  H   UNL     1      -7.621  -1.089   9.292  0.00  0.00    +0.000 HD
ATOM     25  H   UNL     1      -7.411   0.135   7.127  0.00  0.00    +0.000 HD
ATOM     26  H   UNL     1      -7.524   2.459   7.483  0.00  0.00    +0.000 HD
ATOM     27  H   UNL     1      -5.814   2.241   7.162  0.00  0.00    +0.000 HD
ATOM     28  H   UNL     1      -5.636   5.646  10.746  0.00  0.00    +0.000 HD
ATOM     29  H   UNL     1      -5.887   4.660   8.478  0.00  0.00    +0.000 HD
ATOM     30  H   UNL     1      -7.126  -0.440  12.410  0.00  0.00    +0.000 HD
ATOM     31  H   UNL     1      -9.595  -1.054  10.884  0.00  0.00    +0.000 HD
ATOM     32  H   UNL     1     -10.665   0.362  10.825  0.00  0.00    +0.000 HD
ATOM     33  H   UNL     1      -9.614  -0.096   8.604  0.00  0.00    +0.000 HD
ENDROOT
BRANCH   1  34
ATOM     34  C   UNL     1      -5.211  -0.791   6.626  0.00  0.00    +0.000 C 
ATOM     35  H   UNL     1      -5.007  -1.858   6.788  0.00  0.00    +0.000 HD
ATOM     36  H   UNL     1      -4.325  -0.367   6.138  0.00  0.00    +0.000 HD
BRANCH  34  38
ATOM     37  C   UNL     1      -6.388  -0.372   4.440  0.00  0.00    +0.000 C 
ATOM     38  C   UNL     1      -6.414  -0.731   5.731  0.00  0.00    +0.000 C 
ATOM     39  H   UNL     1      -7.301  -0.355   3.853  0.00  0.00    +0.000 HD
ATOM     40  H   UNL     1      -5.466  -0.088   3.945  0.00  0.00    +0.000 HD
ATOM     41  H   UNL     1      -7.364  -1.011   6.184  0.00  0.00    +0.000 HD
ENDBRANCH  34  38
ENDBRANCH   1  34
BRANCH  11  42
ATOM     42  O   UNL     1      -6.003   4.380  13.012  0.00  0.00    +0.000 OA
ATOM     43  H   UNL     1      -6.891   4.754  13.176  0.00  0.00    +0.000 HD
ENDBRANCH  11  42
BRANCH  19  44
ATOM     44  O   UNL     1      -9.256   1.811   9.162  0.00  0.00    +0.000 OA
ATOM     45  H   UNL     1     -10.209   2.009   9.193  0.00  0.00    +0.000 HD
ENDBRANCH  19  44
TORSDOF 4
ENDMDL
MODEL 3
REMARK VINA RESULT:    -8.439      1.220      1.226
REMARK INTER + INTRA:         -10.164
REMARK INTER:                  -9.900
REMARK INTRA:                  -0.264
REMARK UNBOUND:                -0.245
REMARK  Name = 
REMARK  4 active torsions:
REMARK  status: ('A' for Active; 'I' for Inactive)
REMARK    1  A    between atoms: C_2  and  C_3
REMARK    2  A    between atoms: C_3  and  N_4
REMARK    3  A    between atoms: C_14  and  O_17
REMARK    4  A    between atoms: C_23  and  O_24
REMARK                            x       y       z     vdW  Elec       q    Type
REMARK                         _______ _______ _______ _____ _____    ______ ____
ROOT
ATOM      1  N   UNL     1      -6.614  -0.130   6.541  0.00  0.00    +0.000 NA
ATOM      2  C   UNL     1      -5.657  -1.107   7.064  0.00  0.00    +0.000 C 
ATOM      3  C   UNL     1      -5.617  -1.150   8.603  0.00  0.00    +0.000 C 
ATOM      4  C   UNL     1      -7.024  -1.054   9.254  0.00  0.00    +0.000 C 
ATOM      5  C   UNL     1      -8.088  -1.352   8.195  0.00  0.00    +0.000 C 
ATOM      6  C   UNL     1      -7.978  -0.199   7.142  0.00  0.00    +0.000 C 
ATOM      7  C   UNL     1      -8.257   1.227   7.731  0.00  0.00    +0.000 C 
ATOM      8  C   UNL     1      -7.701   1.423   9.118  0.00  0.00    +0.000 A 
ATOM      9  C   UNL     1      -7.211   0.322   9.795  0.00  0.00    +0.000 A 
ATOM     10  C   UNL     1      -6.876   0.356  11.131  0.00  0.00    +0.000 A 
ATOM     11  C   UNL     1      -6.919   1.538  11.832  0.00  0.00    +0.000 A 
ATOM     12  C   UNL     1      -7.344   2.691  11.171  0.00  0.00    +0.000 A 
ATOM     13  C   UNL     1      -7.754   2.631   9.821  0.00  0.00    +0.000 A 
ATOM     14  O   UNL     1      -6.567  -0.886  11.629  0.00  0.00    +0.000 OA
ATOM     15  C   UNL     1      -7.094  -1.784  10.606  0.00  0.00    +0.000 C 
ATOM     16  C   UNL     1      -8.509  -2.246  10.983  0.00  0.00    +0.000 C 
ATOM     17  O   UNL     1      -8.870  -2.379  12.156  0.00  0.00    +0.000 OA
ATOM     18  C   UNL     1      -9.422  -2.684   9.860  0.00  0.00    +0.000 C 
ATOM     19  C   UNL     1      -9.492  -1.628   8.763  0.00  0.00    +0.000 C 
ATOM     20  H   UNL     1      -4.642  -0.875   6.722  0.00  0.00    +0.000 HD
ATOM     21  H   UNL     1      -5.886  -2.110   6.679  0.00  0.00    +0.000 HD
ATOM     22  H   UNL     1      -4.953  -0.354   8.966  0.00  0.00    +0.000 HD
ATOM     23  H   UNL     1      -5.140  -2.098   8.881  0.00  0.00    +0.000 HD
ATOM     24  H   UNL     1      -7.822  -2.298   7.700  0.00  0.00    +0.000 HD
ATOM     25  H   UNL     1      -8.723  -0.395   6.359  0.00  0.00    +0.000 HD
ATOM     26  H   UNL     1      -9.342   1.385   7.769  0.00  0.00    +0.000 HD
ATOM     27  H   UNL     1      -7.860   2.002   7.063  0.00  0.00    +0.000 HD
ATOM     28  H   UNL     1      -7.396   3.631  11.712  0.00  0.00    +0.000 HD
ATOM     29  H   UNL     1      -8.136   3.528   9.341  0.00  0.00    +0.000 HD
ATOM     30  H   UNL     1      -6.476  -2.690  10.602  0.00  0.00    +0.000 HD
ATOM     31  H   UNL     1      -9.049  -3.637   9.470  0.00  0.00    +0.000 HD
ATOM     32  H   UNL     1     -10.419  -2.852  10.282  0.00  0.00    +0.000 HD
ATOM     33  H   UNL     1     -10.122  -2.008   7.949  0.00  0.00    +0.000 HD
ENDROOT
BRANCH   1  34
ATOM     34  C   UNL     1      -6.669  -0.111   5.074  0.00  0.00    +0.000 C 
ATOM     35  H   UNL     1      -6.422   0.895   4.713  0.00  0.00    +0.000 HD
ATOM     36  H   UNL     1      -7.683  -0.336   4.723  0.00  0.00    +0.000 HD
BRANCH  34  38
ATOM     37  C   UNL     1      -5.243  -0.968   3.185  0.00  0.00    +0.000 C 
ATOM     38  C   UNL     1      -5.657  -1.032   4.457  0.00  0.00    +0.000 C 
ATOM     39  H   UNL     1      -4.503  -1.669   2.809  0.00  0.00    +0.000 HD
ATOM     40  H   UNL     1      -5.628  -0.225   2.495  0.00  0.00    +0.000 HD
ATOM     41  H   UNL     1      -5.239  -1.794   5.113  0.00  0.00    +0.000 HD
ENDBRANCH  34  38
ENDBRANCH   1  34
BRANCH  11  42
ATOM     42  O   UNL     1      -6.590   1.594  13.151  0.00  0.00    +0.000 OA
ATOM     43  H   UNL     1      -5.713   2.024  13.184  0.00  0.00    +0.000 HD
ENDBRANCH  11  42
BRANCH  19  44
ATOM     44  O   UNL     1     -10.133  -0.465   9.250  0.00  0.00    +0.000 OA
ATOM     45  H   UNL     1     -10.566  -0.663  10.099  0.00  0.00    +0.000 HD
ENDBRANCH  19  44
TORSDOF 4
ENDMDL
MODEL 4
REMARK VINA RESULT:    -8.352      1.551      3.885
REMARK INTER + INTRA:         -10.062
REMARK INTER:                  -9.806
REMARK INTRA:                  -0.256
REMARK UNBOUND:                -0.245
REMARK  Name = 
REMARK  4 active torsions:
REMARK  status: ('A' for Active; 'I' for Inactive)
REMARK    1  A    between atoms: C_2  and  C_3
REMARK    2  A    between atoms: C_3  and  N_4
REMARK    3  A    between atoms: C_14  and  O_17
REMARK    4  A    between atoms: C_23  and  O_24
REMARK                            x       y       z     vdW  Elec       q    Type
REMARK                         _______ _______ _______ _____ _____    ______ ____
ROOT
ATOM      1  N   UNL     1      -6.439  -0.680   7.043  0.00  0.00    +0.000 NA
ATOM      2  C   UNL     1      -7.649  -0.002   6.576  0.00  0.00    +0.000 C 
ATOM      3  C   UNL     1      -8.659   0.281   7.705  0.00  0.00    +0.000 C 
ATOM      4  C   UNL     1      -7.987   0.765   9.018  0.00  0.00    +0.000 C 
ATOM      5  C   UNL     1      -6.557   1.217   8.714  0.00  0.00    +0.000 C 
ATOM      6  C   UNL     1      -5.794  -0.065   8.240  0.00  0.00    +0.000 C 
ATOM      7  C   UNL     1      -5.731  -1.200   9.320  0.00  0.00    +0.000 C 
ATOM      8  C   UNL     1      -6.998  -1.336  10.125  0.00  0.00    +0.000 A 
ATOM      9  C   UNL     1      -7.971  -0.362   9.994  0.00  0.00    +0.000 A 
ATOM     10  C   UNL     1      -9.063  -0.283  10.829  0.00  0.00    +0.000 A 
ATOM     11  C   UNL     1      -9.287  -1.250  11.780  0.00  0.00    +0.000 A 
ATOM     12  C   UNL     1      -8.366  -2.290  11.904  0.00  0.00    +0.000 A 
ATOM     13  C   UNL     1      -7.212  -2.323  11.091  0.00  0.00    +0.000 A 
ATOM     14  O   UNL     1      -9.808   0.852  10.617  0.00  0.00    +0.000 OA
ATOM     15  C   UNL     1      -8.902   1.691   9.838  0.00  0.00    +0.000 C 
ATOM     16  C   UNL     1      -8.138   2.651  10.762  0.00  0.00    +0.000 C 
ATOM     17  O   UNL     1      -8.626   3.088  11.808  0.00  0.00    +0.000 OA
ATOM     18  C   UNL     1      -6.805   3.173  10.276  0.00  0.00    +0.000 C 
ATOM     19  C   UNL     1      -5.893   2.032   9.838  0.00  0.00    +0.000 C 
ATOM     20  H   UNL     1      -8.168  -0.610   5.826  0.00  0.00    +0.000 HD
ATOM     21  H   UNL     1      -7.391   0.942   6.077  0.00  0.00    +0.000 HD
ATOM     22  H   UNL     1      -9.267  -0.618   7.874  0.00  0.00    +0.000 HD
ATOM     23  H   UNL     1      -9.346   1.050   7.330  0.00  0.00    +0.000 HD
ATOM     24  H   UNL     1      -6.595   1.926   7.873  0.00  0.00    +0.000 HD
ATOM     25  H   UNL     1      -4.765   0.232   7.999  0.00  0.00    +0.000 HD
ATOM     26  H   UNL     1      -4.906  -0.982  10.010  0.00  0.00    +0.000 HD
ATOM     27  H   UNL     1      -5.489  -2.162   8.851  0.00  0.00    +0.000 HD
ATOM     28  H   UNL     1      -8.520  -3.057  12.657  0.00  0.00    +0.000 HD
ATOM     29  H   UNL     1      -6.478  -3.110  11.242  0.00  0.00    +0.000 HD
ATOM     30  H   UNL     1      -9.511   2.327   9.184  0.00  0.00    +0.000 HD
ATOM     31  H   UNL     1      -6.992   3.869   9.452  0.00  0.00    +0.000 HD
ATOM     32  H   UNL     1      -6.341   3.728  11.098  0.00  0.00    +0.000 HD
ATOM     33  H   UNL     1      -4.961   2.458   9.448  0.00  0.00    +0.000 HD
ENDROOT
BRANCH   1  34
ATOM     34  C   UNL     1      -5.469  -0.923   5.970  0.00  0.00    +0.000 C 
ATOM     35  H   UNL     1      -5.153  -1.974   5.994  0.00  0.00    +0.000 HD
ATOM     36  H   UNL     1      -4.568  -0.316   6.119  0.00  0.00    +0.000 HD
BRANCH  34  38
ATOM     37  C   UNL     1      -5.427  -0.938   3.453  0.00  0.00    +0.000 C 
ATOM     38  C   UNL     1      -6.061  -0.701   4.608  0.00  0.00    +0.000 C 
ATOM     39  H   UNL     1      -5.922  -0.756   2.503  0.00  0.00    +0.000 HD
ATOM     40  H   UNL     1      -4.410  -1.315   3.425  0.00  0.00    +0.000 HD
ATOM     41  H   UNL     1      -7.083  -0.326   4.586  0.00  0.00    +0.000 HD
ENDBRANCH  34  38
ENDBRANCH   1  34
BRANCH  11  42
ATOM     42  O   UNL     1     -10.362  -1.191  12.613  0.00  0.00    +0.000 OA
ATOM     43  H   UNL     1     -10.387  -2.055  13.069  0.00  0.00    +0.000 HD
ENDBRANCH  11  42
BRANCH  19  44
ATOM     44  O   UNL     1      -5.531   1.244  10.956  0.00  0.00    +0.000 OA
ATOM     45  H   UNL     1      -6.335   0.949  11.421  0.00  0.00    +0.000 HD
ENDBRANCH  19  44
TORSDOF 4
ENDMDL
MODEL 5
REMARK VINA RESULT:    -8.032      2.793      5.743
REMARK INTER + INTRA:          -9.686
REMARK INTER:                  -9.571
REMARK INTRA:                  -0.116
REMARK UNBOUND:                -0.245
REMARK  Name = 
REMARK  4 active torsions:
REMARK  status: ('A' for Active; 'I' for Inactive)
REMARK    1  A    between atoms: C_2  and  C_3
REMARK    2  A    between atoms: C_3  and  N_4
REMARK    3  A    between atoms: C_14  and  O_17
REMARK    4  A    between atoms: C_23  and  O_24
REMARK                            x       y       z     vdW  Elec       q    Type
REMARK                         _______ _______ _______ _____ _____    ______ ____
ROOT
ATOM      1  N   UNL     1      -5.717   3.917  11.352  0.00  0.00    +0.000 NA
ATOM      2  C   UNL     1      -5.880   4.567  10.051  0.00  0.00    +0.000 C 
ATOM      3  C   UNL     1      -6.032   3.566   8.889  0.00  0.00    +0.000 C 
ATOM      4  C   UNL     1      -6.937   2.354   9.242  0.00  0.00    +0.000 C 
ATOM      5  C   UNL     1      -7.753   2.684  10.493  0.00  0.00    +0.000 C 
ATOM      6  C   UNL     1      -6.714   2.847  11.652  0.00  0.00    +0.000 C 
ATOM      7  C   UNL     1      -5.876   1.553  11.939  0.00  0.00    +0.000 C 
ATOM      8  C   UNL     1      -5.498   0.793  10.694  0.00  0.00    +0.000 A 
ATOM      9  C   UNL     1      -6.073   1.166   9.493  0.00  0.00    +0.000 A 
ATOM     10  C   UNL     1      -5.956   0.413   8.345  0.00  0.00    +0.000 A 
ATOM     11  C   UNL     1      -5.160  -0.708   8.323  0.00  0.00    +0.000 A 
ATOM     12  C   UNL     1      -4.506  -1.085   9.496  0.00  0.00    +0.000 A 
ATOM     13  C   UNL     1      -4.690  -0.348  10.685  0.00  0.00    +0.000 A 
ATOM     14  O   UNL     1      -6.738   0.888   7.320  0.00  0.00    +0.000 OA
ATOM     15  C   UNL     1      -7.661   1.786   8.009  0.00  0.00    +0.000 C 
ATOM     16  C   UNL     1      -8.966   1.049   8.347  0.00  0.00    +0.000 C 
ATOM     17  O   UNL     1      -9.411   0.139   7.643  0.00  0.00    +0.000 OA
ATOM     18  C   UNL     1      -9.783   1.575   9.505  0.00  0.00    +0.000 C 
ATOM     19  C   UNL     1      -8.928   1.726  10.758  0.00  0.00    +0.000 C 
ATOM     20  H   UNL     1      -5.012   5.195   9.821  0.00  0.00    +0.000 HD
ATOM     21  H   UNL     1      -6.748   5.239  10.065  0.00  0.00    +0.000 HD
ATOM     22  H   UNL     1      -5.035   3.240   8.565  0.00  0.00    +0.000 HD
ATOM     23  H   UNL     1      -6.462   4.121   8.046  0.00  0.00    +0.000 HD
ATOM     24  H   UNL     1      -8.246   3.655  10.334  0.00  0.00    +0.000 HD
ATOM     25  H   UNL     1      -7.271   3.101  12.564  0.00  0.00    +0.000 HD
ATOM     26  H   UNL     1      -6.467   0.889  12.582  0.00  0.00    +0.000 HD
ATOM     27  H   UNL     1      -4.971   1.800  12.507  0.00  0.00    +0.000 HD
ATOM     28  H   UNL     1      -3.882  -1.974   9.500  0.00  0.00    +0.000 HD
ATOM     29  H   UNL     1      -4.216  -0.690  11.602  0.00  0.00    +0.000 HD
ATOM     30  H   UNL     1      -7.940   2.583   7.310  0.00  0.00    +0.000 HD
ATOM     31  H   UNL     1     -10.221   2.533   9.205  0.00  0.00    +0.000 HD
ATOM     32  H   UNL     1     -10.598   0.867   9.691  0.00  0.00    +0.000 HD
ATOM     33  H   UNL     1      -9.548   2.156  11.555  0.00  0.00    +0.000 HD
ENDROOT
BRANCH   1  34
ATOM     34  C   UNL     1      -5.600   4.873  12.459  0.00  0.00    +0.000 C 
ATOM     35  H   UNL     1      -6.397   5.624  12.378  0.00  0.00    +0.000 HD
ATOM     36  H   UNL     1      -4.647   5.413  12.403  0.00  0.00    +0.000 HD
BRANCH  34  38
ATOM     37  C   UNL     1      -4.791   3.943  14.654  0.00  0.00    +0.000 C 
ATOM     38  C   UNL     1      -5.783   4.218  13.797  0.00  0.00    +0.000 C 
ATOM     39  H   UNL     1      -5.001   3.468  15.607  0.00  0.00    +0.000 HD
ATOM     40  H   UNL     1      -3.757   4.180  14.427  0.00  0.00    +0.000 HD
ATOM     41  H   UNL     1      -6.805   3.963  14.070  0.00  0.00    +0.000 HD
ENDBRANCH  34  38
ENDBRANCH   1  34
BRANCH  11  42
ATOM     42  O   UNL     1      -5.029  -1.463   7.199  0.00  0.00    +0.000 OA
ATOM     43  H   UNL     1      -4.886  -0.827   6.471  0.00  0.00    +0.000 HD
ENDBRANCH  11  42
BRANCH  19  44
ATOM     44  O   UNL     1      -8.516   0.455  11.220  0.00  0.00    +0.000 OA
ATOM     45  H   UNL     1      -8.572   0.426  12.192  0.00  0.00    +0.000 HD
ENDBRANCH  19  44
TORSDOF 4
ENDMDL
MODEL 6
REMARK VINA RESULT:    -8.012      2.624      5.518
REMARK INTER + INTRA:          -9.662
REMARK INTER:                  -9.410
REMARK INTRA:                  -0.252
REMARK UNBOUND:                -0.245
REMARK  Name = 
REMARK  4 active torsions:
REMARK  status: ('A' for Active; 'I' for Inactive)
REMARK    1  A    between atoms: C_2  and  C_3
REMARK    2  A    between atoms: C_3  and  N_4
REMARK    3  A    between atoms: C_14  and  O_17
REMARK    4  A    between atoms: C_23  and  O_24
REMARK                            x       y       z     vdW  Elec       q    Type
REMARK                         _______ _______ _______ _____ _____    ______ ____
ROOT
ATOM      1  N   UNL     1     -10.295  -0.479  10.387  0.00  0.00    +0.000 NA
ATOM      2  C   UNL     1     -10.003  -1.880  10.076  0.00  0.00    +0.000 C 
ATOM      3  C   UNL     1      -8.993  -2.047   8.924  0.00  0.00    +0.000 C 
ATOM      4  C   UNL     1      -7.820  -1.032   8.989  0.00  0.00    +0.000 C 
ATOM      5  C   UNL     1      -7.765  -0.416  10.388  0.00  0.00    +0.000 C 
ATOM      6  C   UNL     1      -9.095   0.392  10.553  0.00  0.00    +0.000 C 
ATOM      7  C   UNL     1      -9.264   1.553   9.512  0.00  0.00    +0.000 C 
ATOM      8  C   UNL     1      -8.766   1.202   8.134  0.00  0.00    +0.000 A 
ATOM      9  C   UNL     1      -8.047   0.032   7.970  0.00  0.00    +0.000 A 
ATOM     10  C   UNL     1      -7.377  -0.274   6.806  0.00  0.00    +0.000 A 
ATOM     11  C   UNL     1      -7.484   0.540   5.703  0.00  0.00    +0.000 A 
ATOM     12  C   UNL     1      -8.254   1.699   5.802  0.00  0.00    +0.000 A 
ATOM     13  C   UNL     1      -8.879   2.041   7.021  0.00  0.00    +0.000 A 
ATOM     14  O   UNL     1      -6.603  -1.403   6.924  0.00  0.00    +0.000 OA
ATOM     15  C   UNL     1      -6.528  -1.592   8.370  0.00  0.00    +0.000 C 
ATOM     16  C   UNL     1      -5.250  -0.945   8.924  0.00  0.00    +0.000 C 
ATOM     17  O   UNL     1      -4.210  -0.866   8.264  0.00  0.00    +0.000 OA
ATOM     18  C   UNL     1      -5.252  -0.531  10.378  0.00  0.00    +0.000 C 
ATOM     19  C   UNL     1      -6.462   0.340  10.701  0.00  0.00    +0.000 C 
ATOM     20  H   UNL     1     -10.917  -2.409   9.782  0.00  0.00    +0.000 HD
ATOM     21  H   UNL     1      -9.625  -2.399  10.967  0.00  0.00    +0.000 HD
ATOM     22  H   UNL     1      -9.529  -1.980   7.968  0.00  0.00    +0.000 HD
ATOM     23  H   UNL     1      -8.607  -3.072   8.988  0.00  0.00    +0.000 HD
ATOM     24  H   UNL     1      -7.767  -1.236  11.123  0.00  0.00    +0.000 HD
ATOM     25  H   UNL     1      -9.091   0.835  11.558  0.00  0.00    +0.000 HD
ATOM     26  H   UNL     1      -8.706   2.427   9.868  0.00  0.00    +0.000 HD
ATOM     27  H   UNL     1     -10.314   1.866   9.454  0.00  0.00    +0.000 HD
ATOM     28  H   UNL     1      -8.341   2.361   4.945  0.00  0.00    +0.000 HD
ATOM     29  H   UNL     1      -9.427   2.976   7.094  0.00  0.00    +0.000 HD
ATOM     30  H   UNL     1      -6.427  -2.666   8.564  0.00  0.00    +0.000 HD
ATOM     31  H   UNL     1      -5.243  -1.438  10.991  0.00  0.00    +0.000 HD
ATOM     32  H   UNL     1      -4.328   0.025  10.572  0.00  0.00    +0.000 HD
ATOM     33  H   UNL     1      -6.450   0.574  11.772  0.00  0.00    +0.000 HD
ENDROOT
BRANCH   1  34
ATOM     34  C   UNL     1     -11.235  -0.325  11.502  0.00  0.00    +0.000 C 
ATOM     35  H   UNL     1     -11.902   0.525  11.302  0.00  0.00    +0.000 HD
ATOM     36  H   UNL     1     -10.699  -0.097  12.431  0.00  0.00    +0.000 HD
BRANCH  34  38
ATOM     37  C   UNL     1     -13.456  -1.466  11.827  0.00  0.00    +0.000 C 
ATOM     38  C   UNL     1     -12.128  -1.521  11.662  0.00  0.00    +0.000 C 
ATOM     39  H   UNL     1     -14.038  -2.376  11.934  0.00  0.00    +0.000 HD
ATOM     40  H   UNL     1     -13.989  -0.522  11.862  0.00  0.00    +0.000 HD
ATOM     41  H   UNL     1     -11.637  -2.492  11.631  0.00  0.00    +0.000 HD
ENDBRANCH  34  38
ENDBRANCH   1  34
BRANCH  11  42
ATOM     42  O   UNL     1      -6.832   0.254   4.544  0.00  0.00    +0.000 OA
ATOM     43  H   UNL     1      -5.952   0.670   4.628  0.00  0.00    +0.000 HD
ENDBRANCH  11  42
BRANCH  19  44
ATOM     44  O   UNL     1      -6.361   1.578  10.024  0.00  0.00    +0.000 OA
ATOM     45  H   UNL     1      -6.663   1.473   9.104  0.00  0.00    +0.000 HD
ENDBRANCH  19  44
TORSDOF 4
ENDMDL
MODEL 7
REMARK VINA RESULT:    -7.667      2.301      5.535
REMARK INTER + INTRA:          -9.257
REMARK INTER:                  -8.994
REMARK INTRA:                  -0.263
REMARK UNBOUND:                -0.245
REMARK  Name = 
REMARK  4 active torsions:
REMARK  status: ('A' for Active; 'I' for Inactive)
REMARK    1  A    between atoms: C_2  and  C_3
REMARK    2  A    between atoms: C_3  and  N_4
REMARK    3  A    between atoms: C_14  and  O_17
REMARK    4  A    between atoms: C_23  and  O_24
REMARK                            x       y       z     vdW  Elec       q    Type
REMARK                         _______ _______ _______ _____ _____    ______ ____
ROOT
ATOM      1  N   UNL     1      -5.940   2.149  11.352  0.00  0.00    +0.000 NA
ATOM      2  C   UNL     1      -6.959   3.037  10.792  0.00  0.00    +0.000 C 
ATOM      3  C   UNL     1      -7.568   2.508   9.479  0.00  0.00    +0.000 C 
ATOM      4  C   UNL     1      -7.835   0.978   9.503  0.00  0.00    +0.000 C 
ATOM      5  C   UNL     1      -7.804   0.485  10.951  0.00  0.00    +0.000 C 
ATOM      6  C   UNL     1      -6.338   0.714  11.449  0.00  0.00    +0.000 C 
ATOM      7  C   UNL     1      -5.260  -0.083  10.636  0.00  0.00    +0.000 C 
ATOM      8  C   UNL     1      -5.548  -0.147   9.159  0.00  0.00    +0.000 A 
ATOM      9  C   UNL     1      -6.779   0.293   8.706  0.00  0.00    +0.000 A 
ATOM     10  C   UNL     1      -7.215   0.087   7.416  0.00  0.00    +0.000 A 
ATOM     11  C   UNL     1      -6.385  -0.485   6.480  0.00  0.00    +0.000 A 
ATOM     12  C   UNL     1      -5.109  -0.884   6.876  0.00  0.00    +0.000 A 
ATOM     13  C   UNL     1      -4.696  -0.734   8.218  0.00  0.00    +0.000 A 
ATOM     14  O   UNL     1      -8.524   0.463   7.236  0.00  0.00    +0.000 OA
ATOM     15  C   UNL     1      -9.017   0.577   8.605  0.00  0.00    +0.000 C 
ATOM     16  C   UNL     1      -9.700  -0.730   9.034  0.00  0.00    +0.000 C 
ATOM     17  O   UNL     1     -10.287  -1.463   8.233  0.00  0.00    +0.000 OA
ATOM     18  C   UNL     1      -9.763  -1.031  10.515  0.00  0.00    +0.000 C 
ATOM     19  C   UNL     1      -8.384  -0.925  11.157  0.00  0.00    +0.000 C 
ATOM     20  H   UNL     1      -6.535   4.024  10.574  0.00  0.00    +0.000 HD
ATOM     21  H   UNL     1      -7.763   3.205  11.521  0.00  0.00    +0.000 HD
ATOM     22  H   UNL     1      -6.912   2.787   8.643  0.00  0.00    +0.000 HD
ATOM     23  H   UNL     1      -8.509   3.050   9.324  0.00  0.00    +0.000 HD
ATOM     24  H   UNL     1      -8.473   1.126  11.544  0.00  0.00    +0.000 HD
ATOM     25  H   UNL     1      -6.288   0.382  12.495  0.00  0.00    +0.000 HD
ATOM     26  H   UNL     1      -5.217  -1.109  11.024  0.00  0.00    +0.000 HD
ATOM     27  H   UNL     1      -4.263   0.346  10.798  0.00  0.00    +0.000 HD
ATOM     28  H   UNL     1      -4.444  -1.348   6.153  0.00  0.00    +0.000 HD
ATOM     29  H   UNL     1      -3.719  -1.103   8.518  0.00  0.00    +0.000 HD
ATOM     30  H   UNL     1      -9.803   1.342   8.617  0.00  0.00    +0.000 HD
ATOM     31  H   UNL     1     -10.469  -0.331  10.974  0.00  0.00    +0.000 HD
ATOM     32  H   UNL     1     -10.156  -2.046  10.636  0.00  0.00    +0.000 HD
ATOM     33  H   UNL     1      -8.485  -1.100  12.235  0.00  0.00    +0.000 HD
ENDROOT
BRANCH   1  34
ATOM     34  C   UNL     1      -5.383   2.643  12.616  0.00  0.00    +0.000 C 
ATOM     35  H   UNL     1      -4.293   2.739  12.523  0.00  0.00    +0.000 HD
ATOM     36  H   UNL     1      -5.571   1.929  13.427  0.00  0.00    +0.000 HD
BRANCH  34  38
ATOM     37  C   UNL     1      -5.248   4.888  13.748  0.00  0.00    +0.000 C 
ATOM     38  C   UNL     1      -5.889   4.014  12.962  0.00  0.00    +0.000 C 
ATOM     39  H   UNL     1      -5.676   5.865  13.952  0.00  0.00    +0.000 HD
ATOM     40  H   UNL     1      -4.292   4.654  14.203  0.00  0.00    +0.000 HD
ATOM     41  H   UNL     1      -6.845   4.295  12.525  0.00  0.00    +0.000 HD
ENDBRANCH  34  38
ENDBRANCH   1  34
BRANCH  11  42
ATOM     42  O   UNL     1      -6.797  -0.695   5.200  0.00  0.00    +0.000 OA
ATOM     43  H   UNL     1      -7.182  -1.592   5.192  0.00  0.00    +0.000 HD
ENDBRANCH  11  42
BRANCH  19  44
ATOM     44  O   UNL     1      -7.542  -1.950  10.666  0.00  0.00    +0.000 OA
ATOM     45  H   UNL     1      -7.206  -1.703   9.786  0.00  0.00    +0.000 HD
ENDBRANCH  19  44
TORSDOF 4
ENDMDL
MODEL 8
REMARK VINA RESULT:    -7.537      2.601      5.731
REMARK INTER + INTRA:          -9.104
REMARK INTER:                  -8.877
REMARK INTRA:                  -0.227
REMARK UNBOUND:                -0.245
REMARK  Name = 
REMARK  4 active torsions:
REMARK  status: ('A' for Active; 'I' for Inactive)
REMARK    1  A    between atoms: C_2  and  C_3
REMARK    2  A    between atoms: C_3  and  N_4
REMARK    3  A    between atoms: C_14  and  O_17
REMARK    4  A    between atoms: C_23  and  O_24
REMARK                            x       y       z     vdW  Elec       q    Type
REMARK                         _______ _______ _______ _____ _____    ______ ____
ROOT
ATOM      1  N   UNL     1      -6.385   2.554  11.596  0.00  0.00    +0.000 NA
ATOM      2  C   UNL     1      -5.265   1.619  11.480  0.00  0.00    +0.000 C 
ATOM      3  C   UNL     1      -5.628   0.332  10.715  0.00  0.00    +0.000 C 
ATOM      4  C   UNL     1      -6.521   0.592   9.471  0.00  0.00    +0.000 C 
ATOM      5  C   UNL     1      -6.461   2.078   9.112  0.00  0.00    +0.000 C 
ATOM      6  C   UNL     1      -7.105   2.837  10.320  0.00  0.00    +0.000 C 
ATOM      7  C   UNL     1      -8.603   2.455  10.583  0.00  0.00    +0.000 C 
ATOM      8  C   UNL     1      -8.896   0.991  10.375  0.00  0.00    +0.000 A 
ATOM      9  C   UNL     1      -7.922   0.199   9.795  0.00  0.00    +0.000 A 
ATOM     10  C   UNL     1      -8.162  -1.091   9.375  0.00  0.00    +0.000 A 
ATOM     11  C   UNL     1      -9.377  -1.689   9.615  0.00  0.00    +0.000 A 
ATOM     12  C   UNL     1     -10.369  -0.948  10.259  0.00  0.00    +0.000 A 
ATOM     13  C   UNL     1     -10.137   0.396  10.621  0.00  0.00    +0.000 A 
ATOM     14  O   UNL     1      -7.102  -1.628   8.686  0.00  0.00    +0.000 OA
ATOM     15  C   UNL     1      -6.300  -0.452   8.363  0.00  0.00    +0.000 C 
ATOM     16  C   UNL     1      -6.648   0.060   6.958  0.00  0.00    +0.000 C 
ATOM     17  O   UNL     1      -7.016  -0.694   6.053  0.00  0.00    +0.000 OA
ATOM     18  C   UNL     1      -6.383   1.519   6.661  0.00  0.00    +0.000 C 
ATOM     19  C   UNL     1      -7.014   2.419   7.717  0.00  0.00    +0.000 C 
ATOM     20  H   UNL     1      -4.911   1.314  12.472  0.00  0.00    +0.000 HD
ATOM     21  H   UNL     1      -4.411   2.104  10.988  0.00  0.00    +0.000 HD
ATOM     22  H   UNL     1      -6.103  -0.374  11.408  0.00  0.00    +0.000 HD
ATOM     23  H   UNL     1      -4.682  -0.131  10.406  0.00  0.00    +0.000 HD
ATOM     24  H   UNL     1      -5.403   2.371   9.046  0.00  0.00    +0.000 HD
ATOM     25  H   UNL     1      -7.063   3.911  10.097  0.00  0.00    +0.000 HD
ATOM     26  H   UNL     1      -9.237   3.034   9.900  0.00  0.00    +0.000 HD
ATOM     27  H   UNL     1      -8.901   2.748  11.597  0.00  0.00    +0.000 HD
ATOM     28  H   UNL     1     -11.339  -1.400  10.447  0.00  0.00    +0.000 HD
ATOM     29  H   UNL     1     -10.941   0.973  11.070  0.00  0.00    +0.000 HD
ATOM     30  H   UNL     1      -5.249  -0.764   8.315  0.00  0.00    +0.000 HD
ATOM     31  H   UNL     1      -5.298   1.665   6.613  0.00  0.00    +0.000 HD
ATOM     32  H   UNL     1      -6.804   1.744   5.675  0.00  0.00    +0.000 HD
ATOM     33  H   UNL     1      -6.755   3.460   7.491  0.00  0.00    +0.000 HD
ENDROOT
BRANCH   1  34
ATOM     34  C   UNL     1      -6.028   3.790  12.302  0.00  0.00    +0.000 C 
ATOM     35  H   UNL     1      -6.943   4.326  12.586  0.00  0.00    +0.000 HD
ATOM     36  H   UNL     1      -5.458   4.459  11.645  0.00  0.00    +0.000 HD
BRANCH  34  38
ATOM     37  C   UNL     1      -4.988   4.449  14.498  0.00  0.00    +0.000 C 
ATOM     38  C   UNL     1      -5.292   3.520  13.582  0.00  0.00    +0.000 C 
ATOM     39  H   UNL     1      -4.455   4.178  15.404  0.00  0.00    +0.000 HD
ATOM     40  H   UNL     1      -5.260   5.491  14.367  0.00  0.00    +0.000 HD
ATOM     41  H   UNL     1      -5.001   2.486  13.759  0.00  0.00    +0.000 HD
ENDBRANCH  34  38
ENDBRANCH   1  34
BRANCH  11  42
ATOM     42  O   UNL     1      -9.634  -2.962   9.212  0.00  0.00    +0.000 OA
ATOM     43  H   UNL     1     -10.604  -3.062   9.259  0.00  0.00    +0.000 HD
ENDBRANCH  11  42
BRANCH  19  44
ATOM     44  O   UNL     1      -8.424   2.337   7.643  0.00  0.00    +0.000 OA
ATOM     45  H   UNL     1      -8.683   1.905   6.809  0.00  0.00    +0.000 HD
ENDBRANCH  19  44
TORSDOF 4
ENDMDL
MODEL 9
REMARK VINA RESULT:    -7.517      2.890      5.714
REMARK INTER + INTRA:          -9.081
REMARK INTER:                  -8.863
REMARK INTRA:                  -0.218
REMARK UNBOUND:                -0.245
REMARK  Name = 
REMARK  4 active torsions:
REMARK  status: ('A' for Active; 'I' for Inactive)
REMARK    1  A    between atoms: C_2  and  C_3
REMARK    2  A    between atoms: C_3  and  N_4
REMARK    3  A    between atoms: C_14  and  O_17
REMARK    4  A    between atoms: C_23  and  O_24
REMARK                            x       y       z     vdW  Elec       q    Type
REMARK                         _______ _______ _______ _____ _____    ______ ____
ROOT
ATOM      1  N   UNL     1      -7.334   2.705  12.377  0.00  0.00    +0.000 NA
ATOM      2  C   UNL     1      -8.756   2.399  12.540  0.00  0.00    +0.000 C 
ATOM      3  C   UNL     1      -9.382   1.748  11.292  0.00  0.00    +0.000 C 
ATOM      4  C   UNL     1      -8.458   0.692  10.626  0.00  0.00    +0.000 C 
ATOM      5  C   UNL     1      -7.359   0.293  11.612  0.00  0.00    +0.000 C 
ATOM      6  C   UNL     1      -6.505   1.583  11.846  0.00  0.00    +0.000 C 
ATOM      7  C   UNL     1      -5.822   2.135  10.548  0.00  0.00    +0.000 C 
ATOM      8  C   UNL     1      -6.687   2.022   9.319  0.00  0.00    +0.000 A 
ATOM      9  C   UNL     1      -7.855   1.286   9.400  0.00  0.00    +0.000 A 
ATOM     10  C   UNL     1      -8.603   0.951   8.292  0.00  0.00    +0.000 A 
ATOM     11  C   UNL     1      -8.265   1.433   7.049  0.00  0.00    +0.000 A 
ATOM     12  C   UNL     1      -7.131   2.236   6.931  0.00  0.00    +0.000 A 
ATOM     13  C   UNL     1      -6.331   2.514   8.060  0.00  0.00    +0.000 A 
ATOM     14  O   UNL     1      -9.627   0.085   8.590  0.00  0.00    +0.000 OA
ATOM     15  C   UNL     1      -9.254  -0.413   9.910  0.00  0.00    +0.000 C 
ATOM     16  C   UNL     1      -8.489  -1.738   9.782  0.00  0.00    +0.000 C 
ATOM     17  O   UNL     1      -8.701  -2.537   8.866  0.00  0.00    +0.000 OA
ATOM     18  C   UNL     1      -7.553  -2.114  10.908  0.00  0.00    +0.000 C 
ATOM     19  C   UNL     1      -6.585  -0.979  11.223  0.00  0.00    +0.000 C 
ATOM     20  H   UNL     1      -9.326   3.312  12.747  0.00  0.00    +0.000 HD
ATOM     21  H   UNL     1      -8.909   1.742  13.407  0.00  0.00    +0.000 HD
ATOM     22  H   UNL     1      -9.666   2.536  10.582  0.00  0.00    +0.000 HD
ATOM     23  H   UNL     1     -10.318   1.276  11.616  0.00  0.00    +0.000 HD
ATOM     24  H   UNL     1      -7.837   0.019  12.565  0.00  0.00    +0.000 HD
ATOM     25  H   UNL     1      -5.713   1.330  12.565  0.00  0.00    +0.000 HD
ATOM     26  H   UNL     1      -4.897   1.573  10.371  0.00  0.00    +0.000 HD
ATOM     27  H   UNL     1      -5.520   3.181  10.689  0.00  0.00    +0.000 HD
ATOM     28  H   UNL     1      -6.842   2.616   5.955  0.00  0.00    +0.000 HD
ATOM     29  H   UNL     1      -5.420   3.095   7.937  0.00  0.00    +0.000 HD
ATOM     30  H   UNL     1     -10.177  -0.653  10.452  0.00  0.00    +0.000 HD
ATOM     31  H   UNL     1      -8.159  -2.372  11.783  0.00  0.00    +0.000 HD
ATOM     32  H   UNL     1      -6.997  -3.007  10.600  0.00  0.00    +0.000 HD
ATOM     33  H   UNL     1      -5.962  -1.276  12.076  0.00  0.00    +0.000 HD
ENDROOT
BRANCH   1  34
ATOM     34  C   UNL     1      -6.735   3.299  13.578  0.00  0.00    +0.000 C 
ATOM     35  H   UNL     1      -6.107   2.552  14.081  0.00  0.00    +0.000 HD
ATOM     36  H   UNL     1      -7.513   3.594  14.292  0.00  0.00    +0.000 HD
BRANCH  34  38
ATOM     37  C   UNL     1      -4.923   4.971  14.088  0.00  0.00    +0.000 C 
ATOM     38  C   UNL     1      -5.827   4.448  13.249  0.00  0.00    +0.000 C 
ATOM     39  H   UNL     1      -4.297   5.802  13.779  0.00  0.00    +0.000 HD
ATOM     40  H   UNL     1      -4.788   4.587  15.094  0.00  0.00    +0.000 HD
ATOM     41  H   UNL     1      -5.924   4.865  12.248  0.00  0.00    +0.000 HD
ENDBRANCH  34  38
ENDBRANCH   1  34
BRANCH  11  42
ATOM     42  O   UNL     1      -8.992   1.116   5.944  0.00  0.00    +0.000 OA
ATOM     43  H   UNL     1      -9.919   1.323   6.171  0.00  0.00    +0.000 HD
ENDBRANCH  11  42
BRANCH  19  44
ATOM     44  O   UNL     1      -5.701  -0.781  10.136  0.00  0.00    +0.000 OA
ATOM     45  H   UNL     1      -4.802  -1.051  10.394  0.00  0.00    +0.000 HD
ENDBRANCH  19  44
TORSDOF 4
ENDMDL
