MODEL 1
REMARK VINA RESULT:    -7.982      0.000      0.000
REMARK INTER + INTRA:          -9.287
REMARK INTER:                  -8.916
REMARK INTRA:                  -0.371
REMARK UNBOUND:                -0.371
REMARK SMILES CCCc1nc(C)cc2c3c(ccc12)CCN3
REMARK SMILES IDX 3 1 2 2 1 3 4 4 14 5 5 6 13 7 9 8 6 9 12 10 10 11 8 12 11 13
REMARK SMILES IDX 17 14 15 15 16 16 7 17
REMARK H PARENT 17 18
ROOT
ATOM      1  C   UNL     1     111.220 128.412  95.366  1.00  0.00     0.056 C 
ENDROOT
BRANCH   1   2
ATOM      2  C   UNL     1     109.869 128.599  96.060  1.00  0.00     0.003 C 
ATOM      3  C   UNL     1     109.550 127.428  96.976  1.00  0.00     0.004 C 
ENDBRANCH   1   2
BRANCH   1   4
ATOM      4  C   UNL     1     112.372 128.731  96.290  1.00  0.00     0.049 A 
ATOM      5  C   UNL     1     113.298 127.750  96.718  1.00  0.00     0.005 A 
ATOM      6  N   UNL     1     112.452 130.042  96.650  1.00  0.00    -0.258 NA
ATOM      7  C   UNL     1     113.258 126.373  96.347  1.00  0.00     0.011 A 
ATOM      8  C   UNL     1     114.338 128.188  97.570  1.00  0.00     0.009 A 
ATOM      9  C   UNL     1     113.453 130.424  97.469  1.00  0.00     0.038 A 
ATOM     10  C   UNL     1     114.214 125.455  96.792  1.00  0.00     0.006 A 
ATOM     11  C   UNL     1     115.273 127.247  98.023  1.00  0.00     0.045 A 
ATOM     12  C   UNL     1     114.404 129.536  97.946  1.00  0.00     0.034 A 
ATOM     13  C   UNL     1     115.213 125.912  97.626  1.00  0.00    -0.022 A 
ATOM     14  N   UNL     1     116.426 127.535  98.824  1.00  0.00    -0.384 N 
ATOM     15  C   UNL     1     116.386 125.172  98.160  1.00  0.00     0.059 C 
ATOM     16  C   UNL     1     116.923 126.187  99.177  1.00  0.00     0.118 C 
ATOM     17  C   UNL     1     113.505 131.869  97.863  1.00  0.00     0.067 C 
ATOM     18  H   UNL     1     117.088 128.028  98.224  1.00  0.00     0.160 HD
ENDBRANCH   1   4
TORSDOF 2
ENDMDL
MODEL 2
REMARK VINA RESULT:    -7.863      1.530      4.516
REMARK INTER + INTRA:          -9.154
REMARK INTER:                  -8.930
REMARK INTRA:                  -0.224
REMARK UNBOUND:                -0.371
REMARK SMILES CCCc1nc(C)cc2c3c(ccc12)CCN3
REMARK SMILES IDX 3 1 2 2 1 3 4 4 14 5 5 6 13 7 9 8 6 9 12 10 10 11 8 12 11 13
REMARK SMILES IDX 17 14 15 15 16 16 7 17
REMARK H PARENT 17 18
ROOT
ATOM      1  C   UNL     1     113.288 125.126  95.822  1.00  0.00     0.056 C 
ENDROOT
BRANCH   1   2
ATOM      2  C   UNL     1     112.326 124.286  96.663  1.00  0.00     0.003 C 
ATOM      3  C   UNL     1     111.958 122.991  95.956  1.00  0.00     0.004 C 
ENDBRANCH   1   2
BRANCH   1   4
ATOM      4  C   UNL     1     113.990 126.174  96.653  1.00  0.00     0.049 A 
ATOM      5  C   UNL     1     113.566 127.524  96.694  1.00  0.00     0.005 A 
ATOM      6  N   UNL     1     115.044 125.699  97.374  1.00  0.00    -0.258 NA
ATOM      7  C   UNL     1     112.458 128.053  95.968  1.00  0.00     0.011 A 
ATOM      8  C   UNL     1     114.305 128.396  97.527  1.00  0.00     0.009 A 
ATOM      9  C   UNL     1     115.730 126.560  98.153  1.00  0.00     0.038 A 
ATOM     10  C   UNL     1     112.080 129.395  96.064  1.00  0.00     0.006 A 
ATOM     11  C   UNL     1     113.924 129.743  97.590  1.00  0.00     0.045 A 
ATOM     12  C   UNL     1     115.396 127.901  98.253  1.00  0.00     0.034 A 
ATOM     13  C   UNL     1     112.823 130.222  96.880  1.00  0.00    -0.022 A 
ATOM     14  N   UNL     1     114.512 130.739  98.437  1.00  0.00    -0.384 N 
ATOM     15  C   UNL     1     112.582 131.648  97.222  1.00  0.00     0.059 C 
ATOM     16  C   UNL     1     113.887 131.989  97.954  1.00  0.00     0.118 C 
ATOM     17  C   UNL     1     116.896 126.014  98.921  1.00  0.00     0.067 C 
ATOM     18  H   UNL     1     114.221 130.525  99.392  1.00  0.00     0.160 HD
ENDBRANCH   1   4
TORSDOF 2
ENDMDL
MODEL 3
REMARK VINA RESULT:    -7.645      1.819      5.203
REMARK INTER + INTRA:          -8.910
REMARK INTER:                  -8.551
REMARK INTRA:                  -0.359
REMARK UNBOUND:                -0.371
REMARK SMILES CCCc1nc(C)cc2c3c(ccc12)CCN3
REMARK SMILES IDX 3 1 2 2 1 3 4 4 14 5 5 6 13 7 9 8 6 9 12 10 10 11 8 12 11 13
REMARK SMILES IDX 17 14 15 15 16 16 7 17
REMARK H PARENT 17 18
ROOT
ATOM      1  C   UNL     1     115.367 129.588  98.618  1.00  0.00     0.056 C 
ENDROOT
BRANCH   1   2
ATOM      2  C   UNL     1     116.400 130.277  97.725  1.00  0.00     0.003 C 
ATOM      3  C   UNL     1     115.735 131.219  96.734  1.00  0.00     0.004 C 
ENDBRANCH   1   2
BRANCH   1   4
ATOM      4  C   UNL     1     114.996 128.221  98.091  1.00  0.00     0.049 A 
ATOM      5  C   UNL     1     113.806 127.982  97.365  1.00  0.00     0.005 A 
ATOM      6  N   UNL     1     115.918 127.253  98.356  1.00  0.00    -0.258 NA
ATOM      7  C   UNL     1     112.828 128.972  97.053  1.00  0.00     0.011 A 
ATOM      8  C   UNL     1     113.591 126.658  96.917  1.00  0.00     0.009 A 
ATOM      9  C   UNL     1     115.677 126.000  97.920  1.00  0.00     0.038 A 
ATOM     10  C   UNL     1     111.678 128.675  96.316  1.00  0.00     0.006 A 
ATOM     11  C   UNL     1     112.419 126.376  96.200  1.00  0.00     0.045 A 
ATOM     12  C   UNL     1     114.537 125.667  97.206  1.00  0.00     0.034 A 
ATOM     13  C   UNL     1     111.493 127.374  95.898  1.00  0.00    -0.022 A 
ATOM     14  N   UNL     1     112.084 125.113  95.611  1.00  0.00    -0.384 N 
ATOM     15  C   UNL     1     110.416 126.821  95.036  1.00  0.00     0.059 C 
ATOM     16  C   UNL     1     110.685 125.316  95.177  1.00  0.00     0.118 C 
ATOM     17  C   UNL     1     116.699 124.952  98.241  1.00  0.00     0.067 C 
ATOM     18  H   UNL     1     112.705 124.986  94.811  1.00  0.00     0.160 HD
ENDBRANCH   1   4
TORSDOF 2
ENDMDL
MODEL 4
REMARK VINA RESULT:    -7.441      1.477      5.013
REMARK INTER + INTRA:          -8.683
REMARK INTER:                  -8.394
REMARK INTRA:                  -0.289
REMARK UNBOUND:                -0.371
REMARK SMILES CCCc1nc(C)cc2c3c(ccc12)CCN3
REMARK SMILES IDX 3 1 2 2 1 3 4 4 14 5 5 6 13 7 9 8 6 9 12 10 10 11 8 12 11 13
REMARK SMILES IDX 17 14 15 15 16 16 7 17
REMARK H PARENT 17 18
ROOT
ATOM      1  C   UNL     1     114.655 126.735  99.117  1.00  0.00     0.056 C 
ENDROOT
BRANCH   1   2
ATOM      2  C   UNL     1     116.149 126.412  99.087  1.00  0.00     0.003 C 
ATOM      3  C   UNL     1     116.452 125.277  98.121  1.00  0.00     0.004 C 
ENDBRANCH   1   2
BRANCH   1   4
ATOM      4  C   UNL     1     114.289 127.790  98.099  1.00  0.00     0.049 A 
ATOM      5  C   UNL     1     113.106 127.725  97.326  1.00  0.00     0.005 A 
ATOM      6  N   UNL     1     115.183 128.814  98.014  1.00  0.00    -0.258 NA
ATOM      7  C   UNL     1     112.139 126.680  97.402  1.00  0.00     0.011 A 
ATOM      8  C   UNL     1     112.880 128.789  96.422  1.00  0.00     0.009 A 
ATOM      9  C   UNL     1     114.939 129.809  97.136  1.00  0.00     0.038 A 
ATOM     10  C   UNL     1     110.979 126.682  96.620  1.00  0.00     0.006 A 
ATOM     11  C   UNL     1     111.723 128.760  95.631  1.00  0.00     0.045 A 
ATOM     12  C   UNL     1     113.812 129.831  96.331  1.00  0.00     0.034 A 
ATOM     13  C   UNL     1     110.789 127.730  95.745  1.00  0.00    -0.022 A 
ATOM     14  N   UNL     1     111.304 129.789  94.725  1.00  0.00    -0.384 N 
ATOM     15  C   UNL     1     109.616 128.013  94.878  1.00  0.00     0.059 C 
ATOM     16  C   UNL     1     110.167 129.160  94.019  1.00  0.00     0.118 C 
ATOM     17  C   UNL     1     115.948 130.914  97.050  1.00  0.00     0.067 C 
ATOM     18  H   UNL     1     110.996 130.578  95.295  1.00  0.00     0.160 HD
ENDBRANCH   1   4
TORSDOF 2
ENDMDL
MODEL 5
REMARK VINA RESULT:    -7.405      2.170      4.154
REMARK INTER + INTRA:          -8.642
REMARK INTER:                  -8.416
REMARK INTRA:                  -0.226
REMARK UNBOUND:                -0.371
REMARK SMILES CCCc1nc(C)cc2c3c(ccc12)CCN3
REMARK SMILES IDX 3 1 2 2 1 3 4 4 14 5 5 6 13 7 9 8 6 9 12 10 10 11 8 12 11 13
REMARK SMILES IDX 17 14 15 15 16 16 7 17
REMARK H PARENT 17 18
ROOT
ATOM      1  C   UNL     1     109.088 127.865  95.796  1.00  0.00     0.056 C 
ENDROOT
BRANCH   1   2
ATOM      2  C   UNL     1     108.262 127.625  97.061  1.00  0.00     0.003 C 
ATOM      3  C   UNL     1     106.821 127.277  96.724  1.00  0.00     0.004 C 
ENDBRANCH   1   2
BRANCH   1   4
ATOM      4  C   UNL     1     110.556 127.592  96.025  1.00  0.00     0.049 A 
ATOM      5  C   UNL     1     111.471 128.607  96.394  1.00  0.00     0.005 A 
ATOM      6  N   UNL     1     110.910 126.286  95.871  1.00  0.00    -0.258 NA
ATOM      7  C   UNL     1     111.133 129.980  96.582  1.00  0.00     0.011 A 
ATOM      8  C   UNL     1     112.813 128.210  96.592  1.00  0.00     0.009 A 
ATOM      9  C   UNL     1     112.201 125.943  96.061  1.00  0.00     0.038 A 
ATOM     10  C   UNL     1     112.082 130.934  96.963  1.00  0.00     0.006 A 
ATOM     11  C   UNL     1     113.754 129.185  96.950  1.00  0.00     0.045 A 
ATOM     12  C   UNL     1     113.170 126.866  96.417  1.00  0.00     0.034 A 
ATOM     13  C   UNL     1     113.384 130.516  97.143  1.00  0.00    -0.022 A 
ATOM     14  N   UNL     1     115.131 128.942  97.263  1.00  0.00    -0.384 N 
ATOM     15  C   UNL     1     114.551 131.300  97.627  1.00  0.00     0.059 C 
ATOM     16  C   UNL     1     115.691 130.308  97.357  1.00  0.00     0.118 C 
ATOM     17  C   UNL     1     112.565 124.503  95.868  1.00  0.00     0.067 C 
ATOM     18  H   UNL     1     115.151 128.471  98.168  1.00  0.00     0.160 HD
ENDBRANCH   1   4
TORSDOF 2
ENDMDL
MODEL 6
REMARK VINA RESULT:    -7.243      2.092      4.525
REMARK INTER + INTRA:          -8.461
REMARK INTER:                  -8.248
REMARK INTRA:                  -0.212
REMARK UNBOUND:                -0.371
REMARK SMILES CCCc1nc(C)cc2c3c(ccc12)CCN3
REMARK SMILES IDX 3 1 2 2 1 3 4 4 14 5 5 6 13 7 9 8 6 9 12 10 10 11 8 12 11 13
REMARK SMILES IDX 17 14 15 15 16 16 7 17
REMARK H PARENT 17 18
ROOT
ATOM      1  C   UNL     1     113.123 124.978  96.002  1.00  0.00     0.056 C 
ENDROOT
BRANCH   1   2
ATOM      2  C   UNL     1     112.306 124.016  95.137  1.00  0.00     0.003 C 
ATOM      3  C   UNL     1     111.938 122.757  95.905  1.00  0.00     0.004 C 
ENDBRANCH   1   2
BRANCH   1   4
ATOM      4  C   UNL     1     112.425 126.308  96.171  1.00  0.00     0.049 A 
ATOM      5  C   UNL     1     113.117 127.490  96.529  1.00  0.00     0.005 A 
ATOM      6  N   UNL     1     111.087 126.270  95.925  1.00  0.00    -0.258 NA
ATOM      7  C   UNL     1     114.519 127.571  96.777  1.00  0.00     0.011 A 
ATOM      8  C   UNL     1     112.343 128.668  96.639  1.00  0.00     0.009 A 
ATOM      9  C   UNL     1     110.378 127.411  96.045  1.00  0.00     0.038 A 
ATOM     10  C   UNL     1     115.146 128.775  97.112  1.00  0.00     0.006 A 
ATOM     11  C   UNL     1     112.987 129.860  96.999  1.00  0.00     0.045 A 
ATOM     12  C   UNL     1     110.964 128.616  96.397  1.00  0.00     0.034 A 
ATOM     13  C   UNL     1     114.364 129.906  97.216  1.00  0.00    -0.022 A 
ATOM     14  N   UNL     1     112.370 131.151  97.079  1.00  0.00    -0.384 N 
ATOM     15  C   UNL     1     114.789 131.308  97.468  1.00  0.00     0.059 C 
ATOM     16  C   UNL     1     113.429 131.982  97.693  1.00  0.00     0.118 C 
ATOM     17  C   UNL     1     108.904 127.336  95.786  1.00  0.00     0.067 C 
ATOM     18  H   UNL     1     112.177 131.447  96.121  1.00  0.00     0.160 HD
ENDBRANCH   1   4
TORSDOF 2
ENDMDL
MODEL 7
REMARK VINA RESULT:    -7.216      1.922      4.221
REMARK INTER + INTRA:          -8.430
REMARK INTER:                  -8.459
REMARK INTRA:                   0.029
REMARK UNBOUND:                -0.371
REMARK SMILES CCCc1nc(C)cc2c3c(ccc12)CCN3
REMARK SMILES IDX 3 1 2 2 1 3 4 4 14 5 5 6 13 7 9 8 6 9 12 10 10 11 8 12 11 13
REMARK SMILES IDX 17 14 15 15 16 16 7 17
REMARK H PARENT 17 18
ROOT
ATOM      1  C   UNL     1     115.345 129.793  98.635  1.00  0.00     0.056 C 
ENDROOT
BRANCH   1   2
ATOM      2  C   UNL     1     116.510 130.200  97.731  1.00  0.00     0.003 C 
ATOM      3  C   UNL     1     116.027 130.997  96.529  1.00  0.00     0.004 C 
ENDBRANCH   1   2
BRANCH   1   4
ATOM      4  C   UNL     1     114.093 129.507  97.839  1.00  0.00     0.049 A 
ATOM      5  C   UNL     1     113.780 128.216  97.350  1.00  0.00     0.005 A 
ATOM      6  N   UNL     1     113.288 130.590  97.659  1.00  0.00    -0.258 NA
ATOM      7  C   UNL     1     114.588 127.056  97.535  1.00  0.00     0.011 A 
ATOM      8  C   UNL     1     112.568 128.086  96.634  1.00  0.00     0.009 A 
ATOM      9  C   UNL     1     112.143 130.432  96.964  1.00  0.00     0.038 A 
ATOM     10  C   UNL     1     114.214 125.803  97.040  1.00  0.00     0.006 A 
ATOM     11  C   UNL     1     112.223 126.826  96.125  1.00  0.00     0.045 A 
ATOM     12  C   UNL     1     111.753 129.210  96.441  1.00  0.00     0.034 A 
ATOM     13  C   UNL     1     113.029 125.709  96.341  1.00  0.00    -0.022 A 
ATOM     14  N   UNL     1     111.002 126.505  95.447  1.00  0.00    -0.384 N 
ATOM     15  C   UNL     1     112.368 124.495  95.794  1.00  0.00     0.059 C 
ATOM     16  C   UNL     1     111.252 125.132  94.956  1.00  0.00     0.118 C 
ATOM     17  C   UNL     1     111.285 131.645  96.766  1.00  0.00     0.067 C 
ATOM     18  H   UNL     1     110.261 126.518  96.149  1.00  0.00     0.160 HD
ENDBRANCH   1   4
TORSDOF 2
ENDMDL
MODEL 8
REMARK VINA RESULT:    -7.179      1.958      2.681
REMARK INTER + INTRA:          -8.389
REMARK INTER:                  -8.110
REMARK INTRA:                  -0.280
REMARK UNBOUND:                -0.371
REMARK SMILES CCCc1nc(C)cc2c3c(ccc12)CCN3
REMARK SMILES IDX 3 1 2 2 1 3 4 4 14 5 5 6 13 7 9 8 6 9 12 10 10 11 8 12 11 13
REMARK SMILES IDX 17 14 15 15 16 16 7 17
REMARK H PARENT 17 18
ROOT
ATOM      1  C   UNL     1     109.947 126.426  95.894  1.00  0.00     0.056 C 
ENDROOT
BRANCH   1   2
ATOM      2  C   UNL     1     108.503 126.913  95.761  1.00  0.00     0.003 C 
ATOM      3  C   UNL     1     107.998 127.511  97.065  1.00  0.00     0.004 C 
ENDBRANCH   1   2
BRANCH   1   4
ATOM      4  C   UNL     1     110.930 127.573  95.861  1.00  0.00     0.049 A 
ATOM      5  C   UNL     1     112.078 127.615  96.687  1.00  0.00     0.005 A 
ATOM      6  N   UNL     1     110.627 128.540  94.951  1.00  0.00    -0.258 NA
ATOM      7  C   UNL     1     112.437 126.614  97.637  1.00  0.00     0.011 A 
ATOM      8  C   UNL     1     112.922 128.740  96.542  1.00  0.00     0.009 A 
ATOM      9  C   UNL     1     111.451 129.602  94.844  1.00  0.00     0.038 A 
ATOM     10  C   UNL     1     113.596 126.707  98.414  1.00  0.00     0.006 A 
ATOM     11  C   UNL     1     114.066 128.827  97.348  1.00  0.00     0.045 A 
ATOM     12  C   UNL     1     112.595 129.737  95.614  1.00  0.00     0.034 A 
ATOM     13  C   UNL     1     114.396 127.818  98.254  1.00  0.00    -0.022 A 
ATOM     14  N   UNL     1     115.063 129.854  97.275  1.00  0.00    -0.384 N 
ATOM     15  C   UNL     1     115.709 128.115  98.883  1.00  0.00     0.059 C 
ATOM     16  C   UNL     1     115.904 129.577  98.460  1.00  0.00     0.118 C 
ATOM     17  C   UNL     1     111.083 130.660  93.848  1.00  0.00     0.067 C 
ATOM     18  H   UNL     1     115.582 129.702  96.410  1.00  0.00     0.160 HD
ENDBRANCH   1   4
TORSDOF 2
ENDMDL
MODEL 9
REMARK VINA RESULT:    -7.064      1.932      3.967
REMARK INTER + INTRA:          -8.261
REMARK INTER:                  -7.898
REMARK INTRA:                  -0.363
REMARK UNBOUND:                -0.371
REMARK SMILES CCCc1nc(C)cc2c3c(ccc12)CCN3
REMARK SMILES IDX 3 1 2 2 1 3 4 4 14 5 5 6 13 7 9 8 6 9 12 10 10 11 8 12 11 13
REMARK SMILES IDX 17 14 15 15 16 16 7 17
REMARK H PARENT 17 18
ROOT
ATOM      1  C   UNL     1     109.609 128.218  95.153  1.00  0.00     0.056 C 
ENDROOT
BRANCH   1   2
ATOM      2  C   UNL     1     109.556 128.319  93.628  1.00  0.00     0.003 C 
ATOM      3  C   UNL     1     110.121 129.644  93.140  1.00  0.00     0.004 C 
ENDBRANCH   1   2
BRANCH   1   4
ATOM      4  C   UNL     1     110.932 127.668  95.632  1.00  0.00     0.049 A 
ATOM      5  C   UNL     1     111.924 128.482  96.229  1.00  0.00     0.005 A 
ATOM      6  N   UNL     1     111.071 126.324  95.462  1.00  0.00    -0.258 NA
ATOM      7  C   UNL     1     111.807 129.888  96.440  1.00  0.00     0.011 A 
ATOM      8  C   UNL     1     113.110 127.834  96.646  1.00  0.00     0.009 A 
ATOM      9  C   UNL     1     112.218 125.740  95.866  1.00  0.00     0.038 A 
ATOM     10  C   UNL     1     112.819 130.635  97.051  1.00  0.00     0.006 A 
ATOM     11  C   UNL     1     114.122 128.606  97.235  1.00  0.00     0.045 A 
ATOM     12  C   UNL     1     113.249 126.454  96.454  1.00  0.00     0.034 A 
ATOM     13  C   UNL     1     113.965 129.976  97.442  1.00  0.00    -0.022 A 
ATOM     14  N   UNL     1     115.347 128.099  97.781  1.00  0.00    -0.384 N 
ATOM     15  C   UNL     1     115.136 130.512  98.183  1.00  0.00     0.059 C 
ATOM     16  C   UNL     1     116.112 129.333  98.065  1.00  0.00     0.118 C 
ATOM     17  C   UNL     1     112.351 124.263  95.650  1.00  0.00     0.067 C 
ATOM     18  H   UNL     1     115.106 127.606  98.641  1.00  0.00     0.160 HD
ENDBRANCH   1   4
TORSDOF 2
ENDMDL
