MODEL 1
REMARK VINA RESULT:    -6.704      0.000      0.000
REMARK INTER + INTRA:          -8.143
REMARK INTER:                  -8.272
REMARK INTRA:                   0.128
REMARK UNBOUND:                 0.128
REMARK SMILES Cc1ccc([C@H]2C[C@@H](C)CC[C@H]2c2cnc(-c3ccc(C(F)(F)F)cc3)nc2)cc1
REMARK SMILES IDX 13 1 14 2 15 3 16 4 27 5 28 6 12 7 6 8 7 9 8 10 11 11 10 12
REMARK SMILES IDX 9 13 5 14 2 15 3 16 30 17 4 18 29 19 1 20 17 21 18 22 26 23
REMARK SMILES IDX 19 24 25 25 20 26 21 27 22 28 23 29 24 30
REMARK H PARENT
ROOT
ATOM      1  C   UNL     1       5.881   0.488  -7.321  1.00  0.00    -0.007 A 
ATOM      2  C   UNL     1       6.004  -0.477  -8.297  1.00  0.00     0.119 A 
ATOM      3  N   UNL     1       6.131  -0.218  -9.616  1.00  0.00    -0.236 NA
ATOM      4  C   UNL     1       6.134   1.077  -9.982  1.00  0.00     0.159 A 
ATOM      5  N   UNL     1       6.014   2.102  -9.119  1.00  0.00    -0.236 NA
ATOM      6  C   UNL     1       5.883   1.781  -7.816  1.00  0.00     0.119 A 
ENDROOT
BRANCH   1   7
ATOM      7  C   UNL     1       5.724   0.226  -5.838  1.00  0.00     0.030 C 
ATOM      8  C   UNL     1       4.344  -0.338  -5.396  1.00  0.00     0.027 C 
ATOM      9  C   UNL     1       4.219  -1.855  -5.627  1.00  0.00     0.012 C 
ATOM     10  C   UNL     1       5.345  -2.617  -4.913  1.00  0.00    -0.014 C 
ATOM     11  C   UNL     1       6.879  -0.603  -5.236  1.00  0.00     0.009 C 
ATOM     12  C   UNL     1       6.727  -2.120  -5.353  1.00  0.00     0.004 C 
ATOM     13  C   UNL     1       5.214  -4.120  -5.155  1.00  0.00     0.007 C 
BRANCH   8  14
ATOM     14  C   UNL     1       3.172   0.482  -5.916  1.00  0.00    -0.044 A 
ATOM     15  C   UNL     1       0.996   1.949  -6.971  1.00  0.00    -0.051 A 
ATOM     16  C   UNL     1       1.954   1.393  -7.822  1.00  0.00     0.004 A 
ATOM     17  C   UNL     1       1.119   1.750  -5.592  1.00  0.00     0.004 A 
ATOM     18  C   UNL     1       3.031   0.670  -7.301  1.00  0.00     0.004 A 
ATOM     19  C   UNL     1       2.198   1.029  -5.070  1.00  0.00     0.004 A 
ATOM     20  C   UNL     1      -0.180   2.692  -7.530  1.00  0.00     0.044 C 
ENDBRANCH   8  14
ENDBRANCH   1   7
BRANCH   4  21
ATOM     21  C   UNL     1       6.274   1.393 -11.419  1.00  0.00     0.019 A 
ATOM     22  C   UNL     1       6.914   0.506 -12.307  1.00  0.00     0.012 A 
ATOM     23  C   UNL     1       5.774   2.590 -11.963  1.00  0.00     0.012 A 
ATOM     24  C   UNL     1       7.051   0.801 -13.670  1.00  0.00     0.014 A 
ATOM     25  C   UNL     1       5.908   2.891 -13.324  1.00  0.00     0.014 A 
ATOM     26  C   UNL     1       6.552   2.001 -14.192  1.00  0.00     0.056 A 
BRANCH  26  27
ATOM     27  C   UNL     1       6.680   2.330 -15.657  1.00  0.00     0.416 C 
ATOM     28  F   UNL     1       6.311   1.291 -16.458  1.00  0.00    -0.166 F 
ATOM     29  F   UNL     1       7.949   2.657 -16.035  1.00  0.00    -0.166 F 
ATOM     30  F   UNL     1       5.900   3.383 -16.029  1.00  0.00    -0.166 F 
ENDBRANCH  26  27
ENDBRANCH   4  21
TORSDOF 4
ENDMDL
