MODEL 1
REMARK VINA RESULT:   -10.213      0.000      0.000
REMARK INTER + INTRA:         -15.850
REMARK INTER:                 -14.691
REMARK INTRA:                  -1.159
REMARK UNBOUND:                -1.159
REMARK  Name = 
REMARK  8 active torsions:
REMARK  status: ('A' for Active; 'I' for Inactive)
REMARK    1  A    between atoms: C_9  and  C_10
REMARK    2  A    between atoms: C_9  and  C_28
REMARK    3  A    between atoms: C_10  and  O_11
REMARK    4  A    between atoms: O_11  and  C_12
REMARK    5  A    between atoms: C_12  and  C_13
REMARK    6  A    between atoms: C_12  and  C_14
REMARK    7  A    between atoms: C_16  and  C_17
REMARK    8  A    between atoms: C_22  and  C_23
REMARK                            x       y       z     vdW  Elec       q    Type
REMARK                         _______ _______ _______ _____ _____    ______ ____
ROOT
ATOM      1  C   UNL     1       6.984   3.228 -12.129  0.00  0.00    +0.000 C 
ATOM      2  C   UNL     1       8.462   2.853 -12.336  0.00  0.00    +0.000 C 
ATOM      3  C   UNL     1       9.168   4.197 -12.517  0.00  0.00    +0.000 C 
ATOM      4  C   UNL     1       8.084   5.070 -13.093  0.00  0.00    +0.000 C 
ATOM      5  O   UNL     1       8.228   6.181 -13.573  0.00  0.00    +0.000 OA
ATOM      6  N   UNL     1       6.878   4.418 -12.945  0.00  0.00    +0.000 N 
ATOM      7  C   UNL     1       6.031   2.115 -12.608  0.00  0.00    +0.000 C 
ATOM      8  N   UNL     1       6.018   0.927 -11.749  0.00  0.00    +0.000 NA
ATOM      9  C   UNL     1       5.621   1.215 -10.343  0.00  0.00    +0.000 C 
ATOM     10  C   UNL     1       6.599   2.300  -9.794  0.00  0.00    +0.000 C 
ATOM     11  C   UNL     1       6.666   3.563 -10.659  0.00  0.00    +0.000 C 
ATOM     12  H   UNL     1       8.901   2.268 -11.524  0.00  0.00    +0.000 HD
ATOM     13  H   UNL     1       8.585   2.270 -13.258  0.00  0.00    +0.000 HD
ATOM     14  H   UNL     1      10.013   4.118 -13.206  0.00  0.00    +0.000 HD
ATOM     15  H   UNL     1       9.496   4.615 -11.561  0.00  0.00    +0.000 HD
ATOM     16  H   UNL     1       6.017   4.916 -13.137  0.00  0.00    +0.000 HD
ATOM     17  H   UNL     1       5.016   2.517 -12.710  0.00  0.00    +0.000 HD
ATOM     18  H   UNL     1       6.307   1.799 -13.623  0.00  0.00    +0.000 HD
ATOM     19  H   UNL     1       6.925   0.465 -11.762  0.00  0.00    +0.000 HD
ATOM     20  H   UNL     1       7.610   1.874  -9.733  0.00  0.00    +0.000 HD
ATOM     21  H   UNL     1       6.356   2.579  -8.763  0.00  0.00    +0.000 HD
ATOM     22  H   UNL     1       5.708   4.094 -10.603  0.00  0.00    +0.000 HD
ATOM     23  H   UNL     1       7.412   4.249 -10.239  0.00  0.00    +0.000 HD
ENDROOT
BRANCH   9  24
ATOM     24  C   UNL     1       4.125   1.592 -10.231  0.00  0.00    +0.000 A 
ATOM     25  C   UNL     1       3.566   2.143  -9.066  0.00  0.00    +0.000 A 
ATOM     26  C   UNL     1       2.199   2.431  -8.983  0.00  0.00    +0.000 A 
ATOM     27  C   UNL     1       1.358   2.168 -10.060  0.00  0.00    +0.000 A 
ATOM     28  C   UNL     1       1.882   1.607 -11.218  0.00  0.00    +0.000 A 
ATOM     29  C   UNL     1       3.245   1.317 -11.298  0.00  0.00    +0.000 A 
ATOM     30  H   UNL     1       4.170   2.351  -8.188  0.00  0.00    +0.000 HD
ATOM     31  H   UNL     1       1.788   2.854  -8.070  0.00  0.00    +0.000 HD
ATOM     32  H   UNL     1       0.296   2.385  -9.990  0.00  0.00    +0.000 HD
ATOM     33  H   UNL     1       1.230   1.381 -12.058  0.00  0.00    +0.000 HD
ATOM     34  H   UNL     1       3.626   0.852 -12.207  0.00  0.00    +0.000 HD
ENDBRANCH   9  24
BRANCH   9  35
ATOM     35  C   UNL     1       5.839  -0.068  -9.459  0.00  0.00    +0.000 C 
ATOM     36  H   UNL     1       5.416   0.090  -8.459  0.00  0.00    +0.000 HD
ATOM     37  H   UNL     1       5.312  -0.918  -9.913  0.00  0.00    +0.000 HD
BRANCH  35  38
ATOM     38  O   UNL     1       7.229  -0.382  -9.289  0.00  0.00    +0.000 OA
BRANCH  38  39
ATOM     39  C   UNL     1       7.677  -0.228  -7.939  0.00  0.00    +0.000 C 
ATOM     40  H   UNL     1       7.968   0.818  -7.775  0.00  0.00    +0.000 HD
BRANCH  39  41
ATOM     41  C   UNL     1       6.589  -0.639  -6.961  0.00  0.00    +0.000 A 
ATOM     42  C   UNL     1       5.517   0.224  -6.693  0.00  0.00    +0.000 A 
ATOM     43  C   UNL     1       4.492  -0.148  -5.809  0.00  0.00    +0.000 A 
ATOM     44  C   UNL     1       4.563  -1.397  -5.169  0.00  0.00    +0.000 A 
ATOM     45  C   UNL     1       5.633  -2.274  -5.411  0.00  0.00    +0.000 A 
ATOM     46  C   UNL     1       6.635  -1.884  -6.312  0.00  0.00    +0.000 A 
ATOM     47  H   UNL     1       5.471   1.197  -7.183  0.00  0.00    +0.000 HD
ATOM     48  H   UNL     1       3.777  -1.693  -4.474  0.00  0.00    +0.000 HD
ATOM     49  H   UNL     1       7.464  -2.562  -6.520  0.00  0.00    +0.000 HD
BRANCH  43  50
ATOM     50  C   UNL     1       3.349   0.799  -5.526  0.00  0.00    +0.000 C 
ATOM     51  F   UNL     1       2.260   0.564  -6.312  0.00  0.00    +0.000 F 
ATOM     52  F   UNL     1       3.691   2.100  -5.738  0.00  0.00    +0.000 F 
ATOM     53  F   UNL     1       2.900   0.730  -4.241  0.00  0.00    +0.000 F 
ENDBRANCH  43  50
BRANCH  45  54
ATOM     54  C   UNL     1       5.685  -3.618  -4.723  0.00  0.00    +0.000 C 
ATOM     55  F   UNL     1       6.890  -3.906  -4.161  0.00  0.00    +0.000 F 
ATOM     56  F   UNL     1       5.400  -4.648  -5.569  0.00  0.00    +0.000 F 
ATOM     57  F   UNL     1       4.775  -3.713  -3.709  0.00  0.00    +0.000 F 
ENDBRANCH  45  54
ENDBRANCH  39  41
BRANCH  39  58
ATOM     58  C   UNL     1       8.916  -1.102  -7.763  0.00  0.00    +0.000 C 
ATOM     59  H   UNL     1       9.806  -0.476  -7.635  0.00  0.00    +0.000 HD
ATOM     60  H   UNL     1       9.099  -1.726  -8.645  0.00  0.00    +0.000 HD
ATOM     61  H   UNL     1       8.824  -1.758  -6.890  0.00  0.00    +0.000 HD
ENDBRANCH  39  58
ENDBRANCH  38  39
ENDBRANCH  35  38
ENDBRANCH   9  35
TORSDOF 8
ENDMDL
MODEL 2
REMARK VINA RESULT:   -10.182      0.206      2.967
REMARK INTER + INTRA:         -15.805
REMARK INTER:                 -14.684
REMARK INTRA:                  -1.120
REMARK UNBOUND:                -1.159
REMARK  Name = 
REMARK  8 active torsions:
REMARK  status: ('A' for Active; 'I' for Inactive)
REMARK    1  A    between atoms: C_9  and  C_10
REMARK    2  A    between atoms: C_9  and  C_28
REMARK    3  A    between atoms: C_10  and  O_11
REMARK    4  A    between atoms: O_11  and  C_12
REMARK    5  A    between atoms: C_12  and  C_13
REMARK    6  A    between atoms: C_12  and  C_14
REMARK    7  A    between atoms: C_16  and  C_17
REMARK    8  A    between atoms: C_22  and  C_23
REMARK                            x       y       z     vdW  Elec       q    Type
REMARK                         _______ _______ _______ _____ _____    ______ ____
ROOT
ATOM      1  C   UNL     1       6.933   3.167 -12.055  0.00  0.00    +0.000 C 
ATOM      2  C   UNL     1       8.398   2.750 -12.275  0.00  0.00    +0.000 C 
ATOM      3  C   UNL     1       9.142   4.074 -12.457  0.00  0.00    +0.000 C 
ATOM      4  C   UNL     1       8.079   4.980 -13.022  0.00  0.00    +0.000 C 
ATOM      5  O   UNL     1       8.251   6.088 -13.500  0.00  0.00    +0.000 OA
ATOM      6  N   UNL     1       6.856   4.363 -12.867  0.00  0.00    +0.000 N 
ATOM      7  C   UNL     1       5.945   2.084 -12.531  0.00  0.00    +0.000 C 
ATOM      8  N   UNL     1       5.904   0.894 -11.676  0.00  0.00    +0.000 NA
ATOM      9  C   UNL     1       5.525   1.189 -10.265  0.00  0.00    +0.000 C 
ATOM     10  C   UNL     1       6.538   2.243  -9.720  0.00  0.00    +0.000 C 
ATOM     11  C   UNL     1       6.636   3.506 -10.582  0.00  0.00    +0.000 C 
ATOM     12  H   UNL     1       8.826   2.150 -11.468  0.00  0.00    +0.000 HD
ATOM     13  H   UNL     1       8.497   2.167 -13.200  0.00  0.00    +0.000 HD
ATOM     14  H   UNL     1       9.979   3.973 -13.153  0.00  0.00    +0.000 HD
ATOM     15  H   UNL     1       9.488   4.479 -11.502  0.00  0.00    +0.000 HD
ATOM     16  H   UNL     1       6.008   4.886 -13.051  0.00  0.00    +0.000 HD
ATOM     17  H   UNL     1       4.941   2.515 -12.624  0.00  0.00    +0.000 HD
ATOM     18  H   UNL     1       6.204   1.763 -13.549  0.00  0.00    +0.000 HD
ATOM     19  H   UNL     1       6.797   0.406 -11.696  0.00  0.00    +0.000 HD
ATOM     20  H   UNL     1       7.537   1.788  -9.669  0.00  0.00    +0.000 HD
ATOM     21  H   UNL     1       6.312   2.525  -8.687  0.00  0.00    +0.000 HD
ATOM     22  H   UNL     1       5.694   4.064 -10.517  0.00  0.00    +0.000 HD
ATOM     23  H   UNL     1       7.404   4.169 -10.166  0.00  0.00    +0.000 HD
ENDROOT
BRANCH   9  24
ATOM     24  C   UNL     1       4.042   1.608 -10.141  0.00  0.00    +0.000 A 
ATOM     25  C   UNL     1       3.505   2.160  -8.966  0.00  0.00    +0.000 A 
ATOM     26  C   UNL     1       2.148   2.487  -8.872  0.00  0.00    +0.000 A 
ATOM     27  C   UNL     1       1.295   2.263  -9.949  0.00  0.00    +0.000 A 
ATOM     28  C   UNL     1       1.796   1.703 -11.117  0.00  0.00    +0.000 A 
ATOM     29  C   UNL     1       3.150   1.374 -11.208  0.00  0.00    +0.000 A 
ATOM     30  H   UNL     1       4.119   2.337  -8.088  0.00  0.00    +0.000 HD
ATOM     31  H   UNL     1       1.754   2.910  -7.952  0.00  0.00    +0.000 HD
ATOM     32  H   UNL     1       0.240   2.511  -9.870  0.00  0.00    +0.000 HD
ATOM     33  H   UNL     1       1.134   1.508 -11.956  0.00  0.00    +0.000 HD
ATOM     34  H   UNL     1       3.513   0.910 -12.124  0.00  0.00    +0.000 HD
ENDBRANCH   9  24
BRANCH   9  35
ATOM     35  C   UNL     1       5.713  -0.103  -9.387  0.00  0.00    +0.000 C 
ATOM     36  H   UNL     1       5.266   0.049  -8.396  0.00  0.00    +0.000 HD
ATOM     37  H   UNL     1       5.192  -0.946  -9.861  0.00  0.00    +0.000 HD
BRANCH  35  38
ATOM     38  O   UNL     1       7.096  -0.428  -9.186  0.00  0.00    +0.000 OA
BRANCH  38  39
ATOM     39  C   UNL     1       7.520  -0.259  -7.829  0.00  0.00    +0.000 C 
ATOM     40  H   UNL     1       7.764   0.798  -7.660  0.00  0.00    +0.000 HD
BRANCH  39  41
ATOM     41  C   UNL     1       6.437  -0.718  -6.867  0.00  0.00    +0.000 A 
ATOM     42  C   UNL     1       6.542  -1.959  -6.224  0.00  0.00    +0.000 A 
ATOM     43  C   UNL     1       5.562  -2.391  -5.316  0.00  0.00    +0.000 A 
ATOM     44  C   UNL     1       4.450  -1.567  -5.072  0.00  0.00    +0.000 A 
ATOM     45  C   UNL     1       4.315  -0.324  -5.713  0.00  0.00    +0.000 A 
ATOM     46  C   UNL     1       5.318   0.089  -6.603  0.00  0.00    +0.000 A 
ATOM     47  H   UNL     1       7.401  -2.601  -6.425  0.00  0.00    +0.000 HD
ATOM     48  H   UNL     1       3.678  -1.895  -4.375  0.00  0.00    +0.000 HD
ATOM     49  H   UNL     1       5.233   1.058  -7.096  0.00  0.00    +0.000 HD
BRANCH  43  50
ATOM     50  C   UNL     1       5.688  -3.736  -4.640  0.00  0.00    +0.000 C 
ATOM     51  F   UNL     1       6.949  -3.984  -4.187  0.00  0.00    +0.000 F 
ATOM     52  F   UNL     1       5.380  -4.765  -5.476  0.00  0.00    +0.000 F 
ATOM     53  F   UNL     1       4.871  -3.871  -3.558  0.00  0.00    +0.000 F 
ENDBRANCH  43  50
BRANCH  45  54
ATOM     54  C   UNL     1       3.119   0.553  -5.427  0.00  0.00    +0.000 C 
ATOM     55  F   UNL     1       2.525   0.305  -4.227  0.00  0.00    +0.000 F 
ATOM     56  F   UNL     1       2.144   0.430  -6.371  0.00  0.00    +0.000 F 
ATOM     57  F   UNL     1       3.445   1.879  -5.407  0.00  0.00    +0.000 F 
ENDBRANCH  45  54
ENDBRANCH  39  41
BRANCH  39  58
ATOM     58  C   UNL     1       8.792  -1.081  -7.638  0.00  0.00    +0.000 C 
ATOM     59  H   UNL     1       8.711  -1.700  -6.738  0.00  0.00    +0.000 HD
ATOM     60  H   UNL     1       9.669  -0.440  -7.497  0.00  0.00    +0.000 HD
ATOM     61  H   UNL     1       8.979  -1.737  -8.495  0.00  0.00    +0.000 HD
ENDBRANCH  39  58
ENDBRANCH  38  39
ENDBRANCH  35  38
ENDBRANCH   9  35
TORSDOF 8
ENDMDL
MODEL 3
REMARK VINA RESULT:    -9.959      1.871      4.062
REMARK INTER + INTRA:         -15.485
REMARK INTER:                 -14.328
REMARK INTRA:                  -1.157
REMARK UNBOUND:                -1.159
REMARK  Name = 
REMARK  8 active torsions:
REMARK  status: ('A' for Active; 'I' for Inactive)
REMARK    1  A    between atoms: C_9  and  C_10
REMARK    2  A    between atoms: C_9  and  C_28
REMARK    3  A    between atoms: C_10  and  O_11
REMARK    4  A    between atoms: O_11  and  C_12
REMARK    5  A    between atoms: C_12  and  C_13
REMARK    6  A    between atoms: C_12  and  C_14
REMARK    7  A    between atoms: C_16  and  C_17
REMARK    8  A    between atoms: C_22  and  C_23
REMARK                            x       y       z     vdW  Elec       q    Type
REMARK                         _______ _______ _______ _____ _____    ______ ____
ROOT
ATOM      1  C   UNL     1       3.720   2.519  -9.443  0.00  0.00    +0.000 C 
ATOM      2  C   UNL     1       3.168   1.734  -8.239  0.00  0.00    +0.000 C 
ATOM      3  C   UNL     1       1.651   1.776  -8.428  0.00  0.00    +0.000 C 
ATOM      4  C   UNL     1       1.444   3.057  -9.193  0.00  0.00    +0.000 C 
ATOM      5  O   UNL     1       0.378   3.606  -9.412  0.00  0.00    +0.000 OA
ATOM      6  N   UNL     1       2.670   3.493  -9.650  0.00  0.00    +0.000 N 
ATOM      7  C   UNL     1       5.072   3.189  -9.126  0.00  0.00    +0.000 C 
ATOM      8  N   UNL     1       6.194   2.252  -9.015  0.00  0.00    +0.000 NA
ATOM      9  C   UNL     1       6.424   1.453 -10.251  0.00  0.00    +0.000 C 
ATOM     10  C   UNL     1       5.093   0.707 -10.580  0.00  0.00    +0.000 C 
ATOM     11  C   UNL     1       3.879   1.635 -10.694  0.00  0.00    +0.000 C 
ATOM     12  H   UNL     1       3.540   0.710  -8.154  0.00  0.00    +0.000 HD
ATOM     13  H   UNL     1       3.414   2.247  -7.300  0.00  0.00    +0.000 HD
ATOM     14  H   UNL     1       1.126   1.804  -7.470  0.00  0.00    +0.000 HD
ATOM     15  H   UNL     1       1.295   0.936  -9.032  0.00  0.00    +0.000 HD
ATOM     16  H   UNL     1       2.710   4.258 -10.312  0.00  0.00    +0.000 HD
ATOM     17  H   UNL     1       5.292   3.952  -9.882  0.00  0.00    +0.000 HD
ATOM     18  H   UNL     1       5.000   3.748  -8.182  0.00  0.00    +0.000 HD
ATOM     19  H   UNL     1       6.063   1.627  -8.222  0.00  0.00    +0.000 HD
ATOM     20  H   UNL     1       4.888  -0.027  -9.788  0.00  0.00    +0.000 HD
ATOM     21  H   UNL     1       5.179   0.109 -11.493  0.00  0.00    +0.000 HD
ATOM     22  H   UNL     1       3.989   2.272 -11.580  0.00  0.00    +0.000 HD
ATOM     23  H   UNL     1       2.979   1.033 -10.870  0.00  0.00    +0.000 HD
ENDROOT
BRANCH   9  24
ATOM     24  C   UNL     1       6.967   2.322 -11.408  0.00  0.00    +0.000 A 
ATOM     25  C   UNL     1       6.137   3.120 -12.214  0.00  0.00    +0.000 A 
ATOM     26  C   UNL     1       6.656   3.860 -13.282  0.00  0.00    +0.000 A 
ATOM     27  C   UNL     1       8.016   3.814 -13.574  0.00  0.00    +0.000 A 
ATOM     28  C   UNL     1       8.857   3.020 -12.805  0.00  0.00    +0.000 A 
ATOM     29  C   UNL     1       8.337   2.280 -11.741  0.00  0.00    +0.000 A 
ATOM     30  H   UNL     1       5.067   3.178 -12.046  0.00  0.00    +0.000 HD
ATOM     31  H   UNL     1       5.994   4.467 -13.894  0.00  0.00    +0.000 HD
ATOM     32  H   UNL     1       8.415   4.384 -14.409  0.00  0.00    +0.000 HD
ATOM     33  H   UNL     1       9.917   2.964 -13.036  0.00  0.00    +0.000 HD
ATOM     34  H   UNL     1       9.013   1.644 -11.170  0.00  0.00    +0.000 HD
ENDBRANCH   9  24
BRANCH   9  35
ATOM     35  C   UNL     1       7.498   0.339  -9.968  0.00  0.00    +0.000 C 
ATOM     36  H   UNL     1       7.739  -0.195 -10.896  0.00  0.00    +0.000 HD
ATOM     37  H   UNL     1       8.423   0.808  -9.605  0.00  0.00    +0.000 HD
BRANCH  35  38
ATOM     38  O   UNL     1       7.036  -0.636  -9.023  0.00  0.00    +0.000 OA
BRANCH  38  39
ATOM     39  C   UNL     1       7.520  -0.404  -7.696  0.00  0.00    +0.000 C 
ATOM     40  H   UNL     1       7.740   0.665  -7.577  0.00  0.00    +0.000 HD
BRANCH  39  41
ATOM     41  C   UNL     1       6.501  -0.857  -6.665  0.00  0.00    +0.000 A 
ATOM     42  C   UNL     1       5.440  -0.015  -6.302  0.00  0.00    +0.000 A 
ATOM     43  C   UNL     1       4.477  -0.425  -5.366  0.00  0.00    +0.000 A 
ATOM     44  C   UNL     1       4.601  -1.693  -4.773  0.00  0.00    +0.000 A 
ATOM     45  C   UNL     1       5.661  -2.550  -5.110  0.00  0.00    +0.000 A 
ATOM     46  C   UNL     1       6.599  -2.121  -6.060  0.00  0.00    +0.000 A 
ATOM     47  H   UNL     1       5.355   0.972  -6.757  0.00  0.00    +0.000 HD
ATOM     48  H   UNL     1       3.863  -2.019  -4.038  0.00  0.00    +0.000 HD
ATOM     49  H   UNL     1       7.419  -2.783  -6.342  0.00  0.00    +0.000 HD
BRANCH  43  50
ATOM     50  C   UNL     1       3.346   0.500  -4.981  0.00  0.00    +0.000 C 
ATOM     51  F   UNL     1       2.179   0.201  -5.616  0.00  0.00    +0.000 F 
ATOM     52  F   UNL     1       3.616   1.799  -5.283  0.00  0.00    +0.000 F 
ATOM     53  F   UNL     1       3.061   0.473  -3.649  0.00  0.00    +0.000 F 
ENDBRANCH  43  50
BRANCH  45  54
ATOM     54  C   UNL     1       5.768  -3.915  -4.470  0.00  0.00    +0.000 C 
ATOM     55  F   UNL     1       6.989  -4.178  -3.930  0.00  0.00    +0.000 F 
ATOM     56  F   UNL     1       5.510  -4.924  -5.349  0.00  0.00    +0.000 F 
ATOM     57  F   UNL     1       4.873  -4.077  -3.451  0.00  0.00    +0.000 F 
ENDBRANCH  45  54
ENDBRANCH  39  41
BRANCH  39  58
ATOM     58  C   UNL     1       8.825  -1.182  -7.540  0.00  0.00    +0.000 C 
ATOM     59  H   UNL     1       9.075  -1.692  -8.476  0.00  0.00    +0.000 HD
ATOM     60  H   UNL     1       8.741  -1.961  -6.774  0.00  0.00    +0.000 HD
ATOM     61  H   UNL     1       9.656  -0.522  -7.271  0.00  0.00    +0.000 HD
ENDBRANCH  39  58
ENDBRANCH  38  39
ENDBRANCH  35  38
ENDBRANCH   9  35
TORSDOF 8
ENDMDL
MODEL 4
REMARK VINA RESULT:    -9.956      1.880      5.035
REMARK INTER + INTRA:         -15.481
REMARK INTER:                 -14.255
REMARK INTRA:                  -1.225
REMARK UNBOUND:                -1.159
REMARK  Name = 
REMARK  8 active torsions:
REMARK  status: ('A' for Active; 'I' for Inactive)
REMARK    1  A    between atoms: C_9  and  C_10
REMARK    2  A    between atoms: C_9  and  C_28
REMARK    3  A    between atoms: C_10  and  O_11
REMARK    4  A    between atoms: O_11  and  C_12
REMARK    5  A    between atoms: C_12  and  C_13
REMARK    6  A    between atoms: C_12  and  C_14
REMARK    7  A    between atoms: C_16  and  C_17
REMARK    8  A    between atoms: C_22  and  C_23
REMARK                            x       y       z     vdW  Elec       q    Type
REMARK                         _______ _______ _______ _____ _____    ______ ____
ROOT
ATOM      1  C   UNL     1       3.720   2.510  -9.425  0.00  0.00    +0.000 C 
ATOM      2  C   UNL     1       3.176   1.738  -8.210  0.00  0.00    +0.000 C 
ATOM      3  C   UNL     1       1.657   1.776  -8.391  0.00  0.00    +0.000 C 
ATOM      4  C   UNL     1       1.445   3.048  -9.167  0.00  0.00    +0.000 C 
ATOM      5  O   UNL     1       0.377   3.593  -9.386  0.00  0.00    +0.000 OA
ATOM      6  N   UNL     1       2.668   3.480  -9.637  0.00  0.00    +0.000 N 
ATOM      7  C   UNL     1       5.073   3.184  -9.124  0.00  0.00    +0.000 C 
ATOM      8  N   UNL     1       6.196   2.249  -9.010  0.00  0.00    +0.000 NA
ATOM      9  C   UNL     1       6.420   1.437 -10.239  0.00  0.00    +0.000 C 
ATOM     10  C   UNL     1       5.088   0.686 -10.551  0.00  0.00    +0.000 C 
ATOM     11  C   UNL     1       3.872   1.612 -10.668  0.00  0.00    +0.000 C 
ATOM     12  H   UNL     1       3.549   0.715  -8.116  0.00  0.00    +0.000 HD
ATOM     13  H   UNL     1       3.427   2.261  -7.278  0.00  0.00    +0.000 HD
ATOM     14  H   UNL     1       1.139   1.814  -7.429  0.00  0.00    +0.000 HD
ATOM     15  H   UNL     1       1.299   0.929  -8.983  0.00  0.00    +0.000 HD
ATOM     16  H   UNL     1       2.703   4.238 -10.308  0.00  0.00    +0.000 HD
ATOM     17  H   UNL     1       5.288   3.939  -9.890  0.00  0.00    +0.000 HD
ATOM     18  H   UNL     1       5.006   3.753  -8.186  0.00  0.00    +0.000 HD
ATOM     19  H   UNL     1       6.071   1.633  -8.210  0.00  0.00    +0.000 HD
ATOM     20  H   UNL     1       4.888  -0.039  -9.750  0.00  0.00    +0.000 HD
ATOM     21  H   UNL     1       5.169   0.078 -11.458  0.00  0.00    +0.000 HD
ATOM     22  H   UNL     1       3.977   2.239 -11.562  0.00  0.00    +0.000 HD
ATOM     23  H   UNL     1       2.972   1.007 -10.831  0.00  0.00    +0.000 HD
ENDROOT
BRANCH   9  24
ATOM     24  C   UNL     1       6.956   2.294 -11.408  0.00  0.00    +0.000 A 
ATOM     25  C   UNL     1       6.118   3.074 -12.224  0.00  0.00    +0.000 A 
ATOM     26  C   UNL     1       6.630   3.803 -13.303  0.00  0.00    +0.000 A 
ATOM     27  C   UNL     1       7.990   3.763 -13.596  0.00  0.00    +0.000 A 
ATOM     28  C   UNL     1       8.838   2.987 -12.817  0.00  0.00    +0.000 A 
ATOM     29  C   UNL     1       8.325   2.257 -11.743  0.00  0.00    +0.000 A 
ATOM     30  H   UNL     1       5.047   3.126 -12.055  0.00  0.00    +0.000 HD
ATOM     31  H   UNL     1       5.963   4.397 -13.922  0.00  0.00    +0.000 HD
ATOM     32  H   UNL     1       8.384   4.324 -14.439  0.00  0.00    +0.000 HD
ATOM     33  H   UNL     1       9.899   2.935 -13.049  0.00  0.00    +0.000 HD
ATOM     34  H   UNL     1       9.006   1.634 -11.163  0.00  0.00    +0.000 HD
ENDBRANCH   9  24
BRANCH   9  35
ATOM     35  C   UNL     1       7.497   0.327  -9.950  0.00  0.00    +0.000 C 
ATOM     36  H   UNL     1       7.742  -0.208 -10.876  0.00  0.00    +0.000 HD
ATOM     37  H   UNL     1       8.419   0.801  -9.585  0.00  0.00    +0.000 HD
BRANCH  35  38
ATOM     38  O   UNL     1       7.035  -0.647  -9.003  0.00  0.00    +0.000 OA
BRANCH  38  39
ATOM     39  C   UNL     1       7.522  -0.416  -7.678  0.00  0.00    +0.000 C 
ATOM     40  H   UNL     1       7.753   0.652  -7.563  0.00  0.00    +0.000 HD
BRANCH  39  41
ATOM     41  C   UNL     1       6.497  -0.855  -6.645  0.00  0.00    +0.000 A 
ATOM     42  C   UNL     1       6.600  -2.116  -6.040  0.00  0.00    +0.000 A 
ATOM     43  C   UNL     1       5.675  -2.530  -5.068  0.00  0.00    +0.000 A 
ATOM     44  C   UNL     1       4.620  -1.669  -4.721  0.00  0.00    +0.000 A 
ATOM     45  C   UNL     1       4.489  -0.407  -5.322  0.00  0.00    +0.000 A 
ATOM     46  C   UNL     1       5.436  -0.012  -6.277  0.00  0.00    +0.000 A 
ATOM     47  H   UNL     1       7.414  -2.785  -6.321  0.00  0.00    +0.000 HD
ATOM     48  H   UNL     1       3.890  -1.984  -3.974  0.00  0.00    +0.000 HD
ATOM     49  H   UNL     1       5.354   0.973  -6.740  0.00  0.00    +0.000 HD
BRANCH  43  50
ATOM     50  C   UNL     1       5.796  -3.896  -4.434  0.00  0.00    +0.000 C 
ATOM     51  F   UNL     1       7.044  -4.144  -3.946  0.00  0.00    +0.000 F 
ATOM     52  F   UNL     1       5.532  -4.900  -5.315  0.00  0.00    +0.000 F 
ATOM     53  F   UNL     1       4.945  -4.079  -3.386  0.00  0.00    +0.000 F 
ENDBRANCH  43  50
BRANCH  45  54
ATOM     54  C   UNL     1       3.355   0.510  -4.924  0.00  0.00    +0.000 C 
ATOM     55  F   UNL     1       3.567   1.819  -5.232  0.00  0.00    +0.000 F 
ATOM     56  F   UNL     1       3.093   0.467  -3.587  0.00  0.00    +0.000 F 
ATOM     57  F   UNL     1       2.182   0.174  -5.539  0.00  0.00    +0.000 F 
ENDBRANCH  45  54
ENDBRANCH  39  41
BRANCH  39  58
ATOM     58  C   UNL     1       8.818  -1.206  -7.519  0.00  0.00    +0.000 C 
ATOM     59  H   UNL     1       9.543  -0.630  -6.934  0.00  0.00    +0.000 HD
ATOM     60  H   UNL     1       9.289  -1.407  -8.488  0.00  0.00    +0.000 HD
ATOM     61  H   UNL     1       8.646  -2.162  -7.014  0.00  0.00    +0.000 HD
ENDBRANCH  39  58
ENDBRANCH  38  39
ENDBRANCH  35  38
ENDBRANCH   9  35
TORSDOF 8
ENDMDL
MODEL 5
REMARK VINA RESULT:    -9.551      4.397      8.035
REMARK INTER + INTRA:         -14.897
REMARK INTER:                 -12.997
REMARK INTRA:                  -1.900
REMARK UNBOUND:                -1.159
REMARK  Name = 
REMARK  8 active torsions:
REMARK  status: ('A' for Active; 'I' for Inactive)
REMARK    1  A    between atoms: C_9  and  C_10
REMARK    2  A    between atoms: C_9  and  C_28
REMARK    3  A    between atoms: C_10  and  O_11
REMARK    4  A    between atoms: O_11  and  C_12
REMARK    5  A    between atoms: C_12  and  C_13
REMARK    6  A    between atoms: C_12  and  C_14
REMARK    7  A    between atoms: C_16  and  C_17
REMARK    8  A    between atoms: C_22  and  C_23
REMARK                            x       y       z     vdW  Elec       q    Type
REMARK                         _______ _______ _______ _____ _____    ______ ____
ROOT
ATOM      1  C   UNL     1       4.885  -0.828  -6.015  0.00  0.00    +0.000 C 
ATOM      2  C   UNL     1       6.077  -0.752  -5.044  0.00  0.00    +0.000 C 
ATOM      3  C   UNL     1       6.640  -2.174  -5.029  0.00  0.00    +0.000 C 
ATOM      4  C   UNL     1       5.432  -3.015  -5.346  0.00  0.00    +0.000 C 
ATOM      5  O   UNL     1       5.353  -4.229  -5.262  0.00  0.00    +0.000 OA
ATOM      6  N   UNL     1       4.429  -2.183  -5.795  0.00  0.00    +0.000 N 
ATOM      7  C   UNL     1       3.796   0.209  -5.676  0.00  0.00    +0.000 C 
ATOM      8  N   UNL     1       4.169   1.593  -5.985  0.00  0.00    +0.000 NA
ATOM      9  C   UNL     1       4.497   1.812  -7.422  0.00  0.00    +0.000 C 
ATOM     10  C   UNL     1       5.641   0.820  -7.796  0.00  0.00    +0.000 C 
ATOM     11  C   UNL     1       5.315  -0.643  -7.482  0.00  0.00    +0.000 C 
ATOM     12  H   UNL     1       6.838  -0.015  -5.314  0.00  0.00    +0.000 HD
ATOM     13  H   UNL     1       5.733  -0.505  -4.030  0.00  0.00    +0.000 HD
ATOM     14  H   UNL     1       7.052  -2.434  -4.051  0.00  0.00    +0.000 HD
ATOM     15  H   UNL     1       7.393  -2.319  -5.809  0.00  0.00    +0.000 HD
ATOM     16  H   UNL     1       3.591  -2.586  -6.198  0.00  0.00    +0.000 HD
ATOM     17  H   UNL     1       2.864  -0.054  -6.191  0.00  0.00    +0.000 HD
ATOM     18  H   UNL     1       3.547   0.154  -4.607  0.00  0.00    +0.000 HD
ATOM     19  H   UNL     1       4.949   1.893  -5.405  0.00  0.00    +0.000 HD
ATOM     20  H   UNL     1       6.549   1.093  -7.241  0.00  0.00    +0.000 HD
ATOM     21  H   UNL     1       5.926   0.911  -8.850  0.00  0.00    +0.000 HD
ATOM     22  H   UNL     1       4.511  -0.987  -8.145  0.00  0.00    +0.000 HD
ATOM     23  H   UNL     1       6.185  -1.267  -7.721  0.00  0.00    +0.000 HD
ENDROOT
BRANCH   9  24
ATOM     24  C   UNL     1       3.244   1.708  -8.322  0.00  0.00    +0.000 A 
ATOM     25  C   UNL     1       3.302   1.839  -9.721  0.00  0.00    +0.000 A 
ATOM     26  C   UNL     1       2.142   1.785 -10.503  0.00  0.00    +0.000 A 
ATOM     27  C   UNL     1       0.899   1.606  -9.904  0.00  0.00    +0.000 A 
ATOM     28  C   UNL     1       0.811   1.491  -8.523  0.00  0.00    +0.000 A 
ATOM     29  C   UNL     1       1.968   1.549  -7.743  0.00  0.00    +0.000 A 
ATOM     30  H   UNL     1       4.241   2.001 -10.239  0.00  0.00    +0.000 HD
ATOM     31  H   UNL     1       2.211   1.891 -11.582  0.00  0.00    +0.000 HD
ATOM     32  H   UNL     1      -0.001   1.571 -10.513  0.00  0.00    +0.000 HD
ATOM     33  H   UNL     1      -0.157   1.369  -8.045  0.00  0.00    +0.000 HD
ATOM     34  H   UNL     1       1.871   1.484  -6.660  0.00  0.00    +0.000 HD
ENDBRANCH   9  24
BRANCH   9  35
ATOM     35  C   UNL     1       5.083   3.260  -7.614  0.00  0.00    +0.000 C 
ATOM     36  H   UNL     1       4.336   3.907  -8.091  0.00  0.00    +0.000 HD
ATOM     37  H   UNL     1       5.319   3.691  -6.632  0.00  0.00    +0.000 HD
BRANCH  35  38
ATOM     38  O   UNL     1       6.249   3.268  -8.450  0.00  0.00    +0.000 OA
BRANCH  38  39
ATOM     39  C   UNL     1       6.123   4.137  -9.580  0.00  0.00    +0.000 C 
ATOM     40  H   UNL     1       6.841   4.962  -9.478  0.00  0.00    +0.000 HD
BRANCH  39  41
ATOM     41  C   UNL     1       6.364   3.376 -10.873  0.00  0.00    +0.000 A 
ATOM     42  C   UNL     1       7.218   2.264 -10.890  0.00  0.00    +0.000 A 
ATOM     43  C   UNL     1       7.436   1.536 -12.071  0.00  0.00    +0.000 A 
ATOM     44  C   UNL     1       6.800   1.951 -13.253  0.00  0.00    +0.000 A 
ATOM     45  C   UNL     1       5.950   3.068 -13.265  0.00  0.00    +0.000 A 
ATOM     46  C   UNL     1       5.738   3.767 -12.067  0.00  0.00    +0.000 A 
ATOM     47  H   UNL     1       7.718   1.952  -9.972  0.00  0.00    +0.000 HD
ATOM     48  H   UNL     1       6.968   1.398 -14.179  0.00  0.00    +0.000 HD
ATOM     49  H   UNL     1       5.067   4.628 -12.059  0.00  0.00    +0.000 HD
BRANCH  43  50
ATOM     50  C   UNL     1       8.367   0.347 -12.072  0.00  0.00    +0.000 C 
ATOM     51  F   UNL     1       8.327  -0.358 -10.906  0.00  0.00    +0.000 F 
ATOM     52  F   UNL     1       9.667   0.709 -12.248  0.00  0.00    +0.000 F 
ATOM     53  F   UNL     1       8.088  -0.552 -13.058  0.00  0.00    +0.000 F 
ENDBRANCH  43  50
BRANCH  45  54
ATOM     54  C   UNL     1       5.265   3.490 -14.544  0.00  0.00    +0.000 C 
ATOM     55  F   UNL     1       3.955   3.129 -14.616  0.00  0.00    +0.000 F 
ATOM     56  F   UNL     1       5.867   2.973 -15.652  0.00  0.00    +0.000 F 
ATOM     57  F   UNL     1       5.282   4.845 -14.715  0.00  0.00    +0.000 F 
ENDBRANCH  45  54
ENDBRANCH  39  41
BRANCH  39  58
ATOM     58  C   UNL     1       4.714   4.723  -9.555  0.00  0.00    +0.000 C 
ATOM     59  H   UNL     1       4.022   4.067 -10.095  0.00  0.00    +0.000 HD
ATOM     60  H   UNL     1       4.673   5.697 -10.055  0.00  0.00    +0.000 HD
ATOM     61  H   UNL     1       4.348   4.845  -8.530  0.00  0.00    +0.000 HD
ENDBRANCH  39  58
ENDBRANCH  38  39
ENDBRANCH  35  38
ENDBRANCH   9  35
TORSDOF 8
ENDMDL
MODEL 6
REMARK VINA RESULT:    -9.496      4.399      7.528
REMARK INTER + INTRA:         -14.819
REMARK INTER:                 -12.995
REMARK INTRA:                  -1.824
REMARK UNBOUND:                -1.159
REMARK  Name = 
REMARK  8 active torsions:
REMARK  status: ('A' for Active; 'I' for Inactive)
REMARK    1  A    between atoms: C_9  and  C_10
REMARK    2  A    between atoms: C_9  and  C_28
REMARK    3  A    between atoms: C_10  and  O_11
REMARK    4  A    between atoms: O_11  and  C_12
REMARK    5  A    between atoms: C_12  and  C_13
REMARK    6  A    between atoms: C_12  and  C_14
REMARK    7  A    between atoms: C_16  and  C_17
REMARK    8  A    between atoms: C_22  and  C_23
REMARK                            x       y       z     vdW  Elec       q    Type
REMARK                         _______ _______ _______ _____ _____    ______ ____
ROOT
ATOM      1  C   UNL     1       4.867  -0.848  -5.978  0.00  0.00    +0.000 C 
ATOM      2  C   UNL     1       6.061  -0.785  -5.009  0.00  0.00    +0.000 C 
ATOM      3  C   UNL     1       6.609  -2.212  -4.994  0.00  0.00    +0.000 C 
ATOM      4  C   UNL     1       5.391  -3.041  -5.308  0.00  0.00    +0.000 C 
ATOM      5  O   UNL     1       5.299  -4.254  -5.224  0.00  0.00    +0.000 OA
ATOM      6  N   UNL     1       4.396  -2.198  -5.757  0.00  0.00    +0.000 N 
ATOM      7  C   UNL     1       3.789   0.200  -5.639  0.00  0.00    +0.000 C 
ATOM      8  N   UNL     1       4.176   1.580  -5.949  0.00  0.00    +0.000 NA
ATOM      9  C   UNL     1       4.504   1.795  -7.386  0.00  0.00    +0.000 C 
ATOM     10  C   UNL     1       5.638   0.790  -7.762  0.00  0.00    +0.000 C 
ATOM     11  C   UNL     1       5.296  -0.669  -7.446  0.00  0.00    +0.000 C 
ATOM     12  H   UNL     1       6.829  -0.056  -5.280  0.00  0.00    +0.000 HD
ATOM     13  H   UNL     1       5.720  -0.534  -3.995  0.00  0.00    +0.000 HD
ATOM     14  H   UNL     1       7.019  -2.476  -4.016  0.00  0.00    +0.000 HD
ATOM     15  H   UNL     1       7.359  -2.366  -5.774  0.00  0.00    +0.000 HD
ATOM     16  H   UNL     1       3.554  -2.593  -6.159  0.00  0.00    +0.000 HD
ATOM     17  H   UNL     1       2.853  -0.053  -6.153  0.00  0.00    +0.000 HD
ATOM     18  H   UNL     1       3.540   0.148  -4.570  0.00  0.00    +0.000 HD
ATOM     19  H   UNL     1       4.960   1.872  -5.371  0.00  0.00    +0.000 HD
ATOM     20  H   UNL     1       6.550   1.054  -7.208  0.00  0.00    +0.000 HD
ATOM     21  H   UNL     1       5.923   0.877  -8.816  0.00  0.00    +0.000 HD
ATOM     22  H   UNL     1       4.488  -1.005  -8.108  0.00  0.00    +0.000 HD
ATOM     23  H   UNL     1       6.160  -1.302  -7.686  0.00  0.00    +0.000 HD
ENDROOT
BRANCH   9  24
ATOM     24  C   UNL     1       3.250   1.703  -8.286  0.00  0.00    +0.000 A 
ATOM     25  C   UNL     1       3.305   1.842  -9.683  0.00  0.00    +0.000 A 
ATOM     26  C   UNL     1       2.144   1.799 -10.463  0.00  0.00    +0.000 A 
ATOM     27  C   UNL     1       0.901   1.624  -9.864  0.00  0.00    +0.000 A 
ATOM     28  C   UNL     1       0.815   1.501  -8.483  0.00  0.00    +0.000 A 
ATOM     29  C   UNL     1       1.974   1.548  -7.705  0.00  0.00    +0.000 A 
ATOM     30  H   UNL     1       4.245   2.001 -10.202  0.00  0.00    +0.000 HD
ATOM     31  H   UNL     1       2.212   1.911 -11.542  0.00  0.00    +0.000 HD
ATOM     32  H   UNL     1       0.000   1.598 -10.471  0.00  0.00    +0.000 HD
ATOM     33  H   UNL     1      -0.153   1.382  -8.004  0.00  0.00    +0.000 HD
ATOM     34  H   UNL     1       1.878   1.477  -6.622  0.00  0.00    +0.000 HD
ENDBRANCH   9  24
BRANCH   9  35
ATOM     35  C   UNL     1       5.106   3.236  -7.581  0.00  0.00    +0.000 C 
ATOM     36  H   UNL     1       4.366   3.889  -8.059  0.00  0.00    +0.000 HD
ATOM     37  H   UNL     1       5.345   3.666  -6.599  0.00  0.00    +0.000 HD
BRANCH  35  38
ATOM     38  O   UNL     1       6.273   3.230  -8.415  0.00  0.00    +0.000 OA
BRANCH  38  39
ATOM     39  C   UNL     1       6.152   4.089  -9.554  0.00  0.00    +0.000 C 
ATOM     40  H   UNL     1       6.866   4.917  -9.455  0.00  0.00    +0.000 HD
BRANCH  39  41
ATOM     41  C   UNL     1       6.405   3.316 -10.838  0.00  0.00    +0.000 A 
ATOM     42  C   UNL     1       5.793   3.715 -12.034  0.00  0.00    +0.000 A 
ATOM     43  C   UNL     1       6.031   3.026 -13.235  0.00  0.00    +0.000 A 
ATOM     44  C   UNL     1       6.880   1.907 -13.220  0.00  0.00    +0.000 A 
ATOM     45  C   UNL     1       7.495   1.480 -12.032  0.00  0.00    +0.000 A 
ATOM     46  C   UNL     1       7.252   2.196 -10.851  0.00  0.00    +0.000 A 
ATOM     47  H   UNL     1       5.126   4.578 -12.039  0.00  0.00    +0.000 HD
ATOM     48  H   UNL     1       7.066   1.359 -14.145  0.00  0.00    +0.000 HD
ATOM     49  H   UNL     1       7.736   1.884  -9.924  0.00  0.00    +0.000 HD
BRANCH  43  50
ATOM     50  C   UNL     1       5.355   3.465 -14.512  0.00  0.00    +0.000 C 
ATOM     51  F   UNL     1       5.944   2.948 -15.627  0.00  0.00    +0.000 F 
ATOM     52  F   UNL     1       5.377   4.817 -14.670  0.00  0.00    +0.000 F 
ATOM     53  F   UNL     1       4.045   3.098 -14.581  0.00  0.00    +0.000 F 
ENDBRANCH  43  50
BRANCH  45  54
ATOM     54  C   UNL     1       8.415   0.281 -12.040  0.00  0.00    +0.000 C 
ATOM     55  F   UNL     1       9.735   0.597 -12.147  0.00  0.00    +0.000 F 
ATOM     56  F   UNL     1       8.143  -0.578 -13.062  0.00  0.00    +0.000 F 
ATOM     57  F   UNL     1       8.306  -0.460 -10.898  0.00  0.00    +0.000 F 
ENDBRANCH  45  54
ENDBRANCH  39  41
BRANCH  39  58
ATOM     58  C   UNL     1       4.740   4.669  -9.545  0.00  0.00    +0.000 C 
ATOM     59  H   UNL     1       4.021   3.921  -9.894  0.00  0.00    +0.000 HD
ATOM     60  H   UNL     1       4.652   5.526 -10.223  0.00  0.00    +0.000 HD
ATOM     61  H   UNL     1       4.445   4.992  -8.541  0.00  0.00    +0.000 HD
ENDBRANCH  39  58
ENDBRANCH  38  39
ENDBRANCH  35  38
ENDBRANCH   9  35
TORSDOF 8
ENDMDL
MODEL 7
REMARK VINA RESULT:    -9.235      2.309      4.130
REMARK INTER + INTRA:         -14.444
REMARK INTER:                 -13.116
REMARK INTRA:                  -1.327
REMARK UNBOUND:                -1.159
REMARK  Name = 
REMARK  8 active torsions:
REMARK  status: ('A' for Active; 'I' for Inactive)
REMARK    1  A    between atoms: C_9  and  C_10
REMARK    2  A    between atoms: C_9  and  C_28
REMARK    3  A    between atoms: C_10  and  O_11
REMARK    4  A    between atoms: O_11  and  C_12
REMARK    5  A    between atoms: C_12  and  C_13
REMARK    6  A    between atoms: C_12  and  C_14
REMARK    7  A    between atoms: C_16  and  C_17
REMARK    8  A    between atoms: C_22  and  C_23
REMARK                            x       y       z     vdW  Elec       q    Type
REMARK                         _______ _______ _______ _____ _____    ______ ____
ROOT
ATOM      1  C   UNL     1       6.619   2.620 -13.988  0.00  0.00    +0.000 C 
ATOM      2  C   UNL     1       5.659   3.795 -14.245  0.00  0.00    +0.000 C 
ATOM      3  C   UNL     1       4.981   3.443 -15.570  0.00  0.00    +0.000 C 
ATOM      4  C   UNL     1       6.017   2.596 -16.261  0.00  0.00    +0.000 C 
ATOM      5  O   UNL     1       5.998   2.236 -17.426  0.00  0.00    +0.000 OA
ATOM      6  N   UNL     1       6.982   2.251 -15.339  0.00  0.00    +0.000 N 
ATOM      7  C   UNL     1       7.846   3.045 -13.157  0.00  0.00    +0.000 C 
ATOM      8  N   UNL     1       7.548   3.323 -11.748  0.00  0.00    +0.000 NA
ATOM      9  C   UNL     1       6.960   2.161 -11.025  0.00  0.00    +0.000 C 
ATOM     10  C   UNL     1       5.676   1.730 -11.801  0.00  0.00    +0.000 C 
ATOM     11  C   UNL     1       5.921   1.440 -13.285  0.00  0.00    +0.000 C 
ATOM     12  H   UNL     1       4.932   3.972 -13.449  0.00  0.00    +0.000 HD
ATOM     13  H   UNL     1       6.222   4.728 -14.382  0.00  0.00    +0.000 HD
ATOM     14  H   UNL     1       4.752   4.337 -16.156  0.00  0.00    +0.000 HD
ATOM     15  H   UNL     1       4.076   2.848 -15.415  0.00  0.00    +0.000 HD
ATOM     16  H   UNL     1       7.680   1.559 -15.584  0.00  0.00    +0.000 HD
ATOM     17  H   UNL     1       8.626   2.278 -13.233  0.00  0.00    +0.000 HD
ATOM     18  H   UNL     1       8.299   3.945 -13.594  0.00  0.00    +0.000 HD
ATOM     19  H   UNL     1       6.932   4.128 -11.663  0.00  0.00    +0.000 HD
ATOM     20  H   UNL     1       4.928   2.532 -11.730  0.00  0.00    +0.000 HD
ATOM     21  H   UNL     1       5.194   0.864 -11.336  0.00  0.00    +0.000 HD
ATOM     22  H   UNL     1       6.540   0.538 -13.382  0.00  0.00    +0.000 HD
ATOM     23  H   UNL     1       4.967   1.199 -13.768  0.00  0.00    +0.000 HD
ENDROOT
BRANCH   9  24
ATOM     24  C   UNL     1       7.989   1.026 -10.820  0.00  0.00    +0.000 A 
ATOM     25  C   UNL     1       8.886   0.623 -11.825  0.00  0.00    +0.000 A 
ATOM     26  C   UNL     1       9.774  -0.438 -11.622  0.00  0.00    +0.000 A 
ATOM     27  C   UNL     1       9.782  -1.126 -10.412  0.00  0.00    +0.000 A 
ATOM     28  C   UNL     1       8.895  -0.760  -9.408  0.00  0.00    +0.000 A 
ATOM     29  C   UNL     1       8.007   0.297  -9.614  0.00  0.00    +0.000 A 
ATOM     30  H   UNL     1       8.909   1.110 -12.795  0.00  0.00    +0.000 HD
ATOM     31  H   UNL     1      10.456  -0.734 -12.415  0.00  0.00    +0.000 HD
ATOM     32  H   UNL     1      10.468  -1.955 -10.260  0.00  0.00    +0.000 HD
ATOM     33  H   UNL     1       8.882  -1.303  -8.467  0.00  0.00    +0.000 HD
ATOM     34  H   UNL     1       7.302   0.547  -8.821  0.00  0.00    +0.000 HD
ENDBRANCH   9  24
BRANCH   9  35
ATOM     35  C   UNL     1       6.484   2.615  -9.596  0.00  0.00    +0.000 C 
ATOM     36  H   UNL     1       7.129   2.171  -8.828  0.00  0.00    +0.000 HD
ATOM     37  H   UNL     1       6.569   3.707  -9.513  0.00  0.00    +0.000 HD
BRANCH  35  38
ATOM     38  O   UNL     1       5.139   2.202  -9.314  0.00  0.00    +0.000 OA
BRANCH  38  39
ATOM     39  C   UNL     1       4.701   2.576  -8.004  0.00  0.00    +0.000 C 
ATOM     40  H   UNL     1       3.726   3.076  -8.081  0.00  0.00    +0.000 HD
BRANCH  39  41
ATOM     41  C   UNL     1       4.606   1.358  -7.100  0.00  0.00    +0.000 A 
ATOM     42  C   UNL     1       3.627   1.295  -6.099  0.00  0.00    +0.000 A 
ATOM     43  C   UNL     1       3.511   0.168  -5.269  0.00  0.00    +0.000 A 
ATOM     44  C   UNL     1       4.412  -0.897  -5.438  0.00  0.00    +0.000 A 
ATOM     45  C   UNL     1       5.409  -0.853  -6.425  0.00  0.00    +0.000 A 
ATOM     46  C   UNL     1       5.492   0.278  -7.251  0.00  0.00    +0.000 A 
ATOM     47  H   UNL     1       2.937   2.129  -5.965  0.00  0.00    +0.000 HD
ATOM     48  H   UNL     1       4.337  -1.774  -4.793  0.00  0.00    +0.000 HD
ATOM     49  H   UNL     1       6.253   0.319  -8.031  0.00  0.00    +0.000 HD
BRANCH  43  50
ATOM     50  C   UNL     1       2.455   0.122  -4.190  0.00  0.00    +0.000 C 
ATOM     51  F   UNL     1       1.486   1.065  -4.357  0.00  0.00    +0.000 F 
ATOM     52  F   UNL     1       2.974   0.334  -2.949  0.00  0.00    +0.000 F 
ATOM     53  F   UNL     1       1.803  -1.073  -4.128  0.00  0.00    +0.000 F 
ENDBRANCH  43  50
BRANCH  45  54
ATOM     54  C   UNL     1       6.359  -2.015  -6.599  0.00  0.00    +0.000 C 
ATOM     55  F   UNL     1       6.303  -2.597  -7.828  0.00  0.00    +0.000 F 
ATOM     56  F   UNL     1       6.139  -3.009  -5.693  0.00  0.00    +0.000 F 
ATOM     57  F   UNL     1       7.663  -1.644  -6.427  0.00  0.00    +0.000 F 
ENDBRANCH  45  54
ENDBRANCH  39  41
BRANCH  39  58
ATOM     58  C   UNL     1       5.710   3.579  -7.450  0.00  0.00    +0.000 C 
ATOM     59  H   UNL     1       5.576   3.693  -6.369  0.00  0.00    +0.000 HD
ATOM     60  H   UNL     1       5.572   4.574  -7.887  0.00  0.00    +0.000 HD
ATOM     61  H   UNL     1       6.740   3.259  -7.640  0.00  0.00    +0.000 HD
ENDBRANCH  39  58
ENDBRANCH  38  39
ENDBRANCH  35  38
ENDBRANCH   9  35
TORSDOF 8
ENDMDL
MODEL 8
REMARK VINA RESULT:    -8.775      2.303      3.652
REMARK INTER + INTRA:         -13.781
REMARK INTER:                 -13.670
REMARK INTRA:                  -0.111
REMARK UNBOUND:                -1.159
REMARK  Name = 
REMARK  8 active torsions:
REMARK  status: ('A' for Active; 'I' for Inactive)
REMARK    1  A    between atoms: C_9  and  C_10
REMARK    2  A    between atoms: C_9  and  C_28
REMARK    3  A    between atoms: C_10  and  O_11
REMARK    4  A    between atoms: O_11  and  C_12
REMARK    5  A    between atoms: C_12  and  C_13
REMARK    6  A    between atoms: C_12  and  C_14
REMARK    7  A    between atoms: C_16  and  C_17
REMARK    8  A    between atoms: C_22  and  C_23
REMARK                            x       y       z     vdW  Elec       q    Type
REMARK                         _______ _______ _______ _____ _____    ______ ____
ROOT
ATOM      1  C   UNL     1       6.417   2.338 -12.399  0.00  0.00    +0.000 C 
ATOM      2  C   UNL     1       7.898   2.722 -12.234  0.00  0.00    +0.000 C 
ATOM      3  C   UNL     1       8.323   3.185 -13.629  0.00  0.00    +0.000 C 
ATOM      4  C   UNL     1       7.402   2.410 -14.534  0.00  0.00    +0.000 C 
ATOM      5  O   UNL     1       7.491   2.313 -15.745  0.00  0.00    +0.000 OA
ATOM      6  N   UNL     1       6.400   1.858 -13.764  0.00  0.00    +0.000 N 
ATOM      7  C   UNL     1       5.987   1.247 -11.399  0.00  0.00    +0.000 C 
ATOM      8  N   UNL     1       5.880   1.713 -10.013  0.00  0.00    +0.000 NA
ATOM      9  C   UNL     1       4.906   2.826  -9.834  0.00  0.00    +0.000 C 
ATOM     10  C   UNL     1       5.338   3.982 -10.788  0.00  0.00    +0.000 C 
ATOM     11  C   UNL     1       5.480   3.552 -12.252  0.00  0.00    +0.000 C 
ATOM     12  H   UNL     1       8.090   3.485 -11.476  0.00  0.00    +0.000 HD
ATOM     13  H   UNL     1       8.496   1.841 -11.965  0.00  0.00    +0.000 HD
ATOM     14  H   UNL     1       9.369   2.940 -13.833  0.00  0.00    +0.000 HD
ATOM     15  H   UNL     1       8.150   4.256 -13.770  0.00  0.00    +0.000 HD
ATOM     16  H   UNL     1       5.603   1.428 -14.218  0.00  0.00    +0.000 HD
ATOM     17  H   UNL     1       5.036   0.805 -11.722  0.00  0.00    +0.000 HD
ATOM     18  H   UNL     1       6.702   0.414 -11.425  0.00  0.00    +0.000 HD
ATOM     19  H   UNL     1       6.791   1.994  -9.657  0.00  0.00    +0.000 HD
ATOM     20  H   UNL     1       6.305   4.381 -10.454  0.00  0.00    +0.000 HD
ATOM     21  H   UNL     1       4.653   4.835 -10.725  0.00  0.00    +0.000 HD
ATOM     22  H   UNL     1       4.491   3.302 -12.655  0.00  0.00    +0.000 HD
ATOM     23  H   UNL     1       5.837   4.403 -12.845  0.00  0.00    +0.000 HD
ENDROOT
BRANCH   9  24
ATOM     24  C   UNL     1       3.447   2.352 -10.027  0.00  0.00    +0.000 A 
ATOM     25  C   UNL     1       2.983   1.794 -11.230  0.00  0.00    +0.000 A 
ATOM     26  C   UNL     1       1.644   1.417 -11.386  0.00  0.00    +0.000 A 
ATOM     27  C   UNL     1       0.737   1.598 -10.347  0.00  0.00    +0.000 A 
ATOM     28  C   UNL     1       1.165   2.165  -9.153  0.00  0.00    +0.000 A 
ATOM     29  C   UNL     1       2.500   2.543  -8.999  0.00  0.00    +0.000 A 
ATOM     30  H   UNL     1       3.641   1.648 -12.081  0.00  0.00    +0.000 HD
ATOM     31  H   UNL     1       1.307   0.990 -12.327  0.00  0.00    +0.000 HD
ATOM     32  H   UNL     1      -0.304   1.313 -10.474  0.00  0.00    +0.000 HD
ATOM     33  H   UNL     1       0.460   2.326  -8.342  0.00  0.00    +0.000 HD
ATOM     34  H   UNL     1       2.805   3.010  -8.063  0.00  0.00    +0.000 HD
ENDBRANCH   9  24
BRANCH   9  35
ATOM     35  C   UNL     1       5.016   3.393  -8.370  0.00  0.00    +0.000 C 
ATOM     36  H   UNL     1       5.646   4.292  -8.363  0.00  0.00    +0.000 HD
ATOM     37  H   UNL     1       4.018   3.684  -8.016  0.00  0.00    +0.000 HD
BRANCH  35  38
ATOM     38  O   UNL     1       5.606   2.451  -7.464  0.00  0.00    +0.000 OA
BRANCH  38  39
ATOM     39  C   UNL     1       4.733   1.365  -7.137  0.00  0.00    +0.000 C 
ATOM     40  H   UNL     1       3.909   1.338  -7.862  0.00  0.00    +0.000 HD
BRANCH  39  41
ATOM     41  C   UNL     1       5.489   0.047  -7.138  0.00  0.00    +0.000 A 
ATOM     42  C   UNL     1       4.974  -1.064  -6.456  0.00  0.00    +0.000 A 
ATOM     43  C   UNL     1       5.648  -2.296  -6.464  0.00  0.00    +0.000 A 
ATOM     44  C   UNL     1       6.870  -2.398  -7.149  0.00  0.00    +0.000 A 
ATOM     45  C   UNL     1       7.414  -1.296  -7.829  0.00  0.00    +0.000 A 
ATOM     46  C   UNL     1       6.711  -0.083  -7.818  0.00  0.00    +0.000 A 
ATOM     47  H   UNL     1       4.030  -0.977  -5.916  0.00  0.00    +0.000 HD
ATOM     48  H   UNL     1       7.408  -3.347  -7.155  0.00  0.00    +0.000 HD
ATOM     49  H   UNL     1       7.115   0.777  -8.355  0.00  0.00    +0.000 HD
BRANCH  43  50
ATOM     50  C   UNL     1       5.081  -3.480  -5.716  0.00  0.00    +0.000 C 
ATOM     51  F   UNL     1       3.869  -3.218  -5.151  0.00  0.00    +0.000 F 
ATOM     52  F   UNL     1       5.890  -3.883  -4.698  0.00  0.00    +0.000 F 
ATOM     53  F   UNL     1       4.894  -4.574  -6.506  0.00  0.00    +0.000 F 
ENDBRANCH  43  50
BRANCH  45  54
ATOM     54  C   UNL     1       8.723  -1.431  -8.571  0.00  0.00    +0.000 C 
ATOM     55  F   UNL     1       8.720  -0.862  -9.807  0.00  0.00    +0.000 F 
ATOM     56  F   UNL     1       9.091  -2.732  -8.748  0.00  0.00    +0.000 F 
ATOM     57  F   UNL     1       9.758  -0.845  -7.900  0.00  0.00    +0.000 F 
ENDBRANCH  45  54
ENDBRANCH  39  41
BRANCH  39  58
ATOM     58  C   UNL     1       4.145   1.647  -5.756  0.00  0.00    +0.000 C 
ATOM     59  H   UNL     1       3.795   0.716  -5.297  0.00  0.00    +0.000 HD
ATOM     60  H   UNL     1       3.276   2.311  -5.815  0.00  0.00    +0.000 HD
ATOM     61  H   UNL     1       4.885   2.105  -5.091  0.00  0.00    +0.000 HD
ENDBRANCH  39  58
ENDBRANCH  38  39
ENDBRANCH  35  38
ENDBRANCH   9  35
TORSDOF 8
ENDMDL
MODEL 9
REMARK VINA RESULT:    -7.754      2.320      4.736
REMARK INTER + INTRA:         -12.312
REMARK INTER:                 -11.000
REMARK INTRA:                  -1.312
REMARK UNBOUND:                -1.159
REMARK  Name = 
REMARK  8 active torsions:
REMARK  status: ('A' for Active; 'I' for Inactive)
REMARK    1  A    between atoms: C_9  and  C_10
REMARK    2  A    between atoms: C_9  and  C_28
REMARK    3  A    between atoms: C_10  and  O_11
REMARK    4  A    between atoms: O_11  and  C_12
REMARK    5  A    between atoms: C_12  and  C_13
REMARK    6  A    between atoms: C_12  and  C_14
REMARK    7  A    between atoms: C_16  and  C_17
REMARK    8  A    between atoms: C_22  and  C_23
REMARK                            x       y       z     vdW  Elec       q    Type
REMARK                         _______ _______ _______ _____ _____    ______ ____
ROOT
ATOM      1  C   UNL     1       6.623   2.613 -14.006  0.00  0.00    +0.000 C 
ATOM      2  C   UNL     1       5.657   3.783 -14.266  0.00  0.00    +0.000 C 
ATOM      3  C   UNL     1       4.994   3.432 -15.599  0.00  0.00    +0.000 C 
ATOM      4  C   UNL     1       6.043   2.597 -16.285  0.00  0.00    +0.000 C 
ATOM      5  O   UNL     1       6.038   2.242 -17.451  0.00  0.00    +0.000 OA
ATOM      6  N   UNL     1       7.001   2.254 -15.355  0.00  0.00    +0.000 N 
ATOM      7  C   UNL     1       7.839   3.043 -13.161  0.00  0.00    +0.000 C 
ATOM      8  N   UNL     1       7.526   3.311 -11.754  0.00  0.00    +0.000 NA
ATOM      9  C   UNL     1       6.939   2.142 -11.043  0.00  0.00    +0.000 C 
ATOM     10  C   UNL     1       5.665   1.706 -11.832  0.00  0.00    +0.000 C 
ATOM     11  C   UNL     1       5.927   1.424 -13.315  0.00  0.00    +0.000 C 
ATOM     12  H   UNL     1       4.921   3.950 -13.476  0.00  0.00    +0.000 HD
ATOM     13  H   UNL     1       6.214   4.721 -14.393  0.00  0.00    +0.000 HD
ATOM     14  H   UNL     1       4.764   4.327 -16.182  0.00  0.00    +0.000 HD
ATOM     15  H   UNL     1       4.092   2.830 -15.456  0.00  0.00    +0.000 HD
ATOM     16  H   UNL     1       7.707   1.568 -15.597  0.00  0.00    +0.000 HD
ATOM     17  H   UNL     1       8.625   2.282 -13.233  0.00  0.00    +0.000 HD
ATOM     18  H   UNL     1       8.289   3.949 -13.589  0.00  0.00    +0.000 HD
ATOM     19  H   UNL     1       6.903   4.112 -11.671  0.00  0.00    +0.000 HD
ATOM     20  H   UNL     1       4.911   2.501 -11.764  0.00  0.00    +0.000 HD
ATOM     21  H   UNL     1       5.186   0.833 -11.376  0.00  0.00    +0.000 HD
ATOM     22  H   UNL     1       6.553   0.528 -13.411  0.00  0.00    +0.000 HD
ATOM     23  H   UNL     1       4.979   1.179 -13.809  0.00  0.00    +0.000 HD
ENDROOT
BRANCH   9  24
ATOM     24  C   UNL     1       7.975   1.013 -10.834  0.00  0.00    +0.000 A 
ATOM     25  C   UNL     1       8.770   0.509 -11.877  0.00  0.00    +0.000 A 
ATOM     26  C   UNL     1       9.666  -0.544 -11.664  0.00  0.00    +0.000 A 
ATOM     27  C   UNL     1       9.783  -1.123 -10.403  0.00  0.00    +0.000 A 
ATOM     28  C   UNL     1       8.996  -0.656  -9.358  0.00  0.00    +0.000 A 
ATOM     29  C   UNL     1       8.100   0.393  -9.573  0.00  0.00    +0.000 A 
ATOM     30  H   UNL     1       8.706   0.908 -12.885  0.00  0.00    +0.000 HD
ATOM     31  H   UNL     1      10.268  -0.920 -12.486  0.00  0.00    +0.000 HD
ATOM     32  H   UNL     1      10.474  -1.946 -10.242  0.00  0.00    +0.000 HD
ATOM     33  H   UNL     1       9.068  -1.113  -8.374  0.00  0.00    +0.000 HD
ATOM     34  H   UNL     1       7.475   0.723  -8.744  0.00  0.00    +0.000 HD
ENDBRANCH   9  24
BRANCH   9  35
ATOM     35  C   UNL     1       6.446   2.584  -9.615  0.00  0.00    +0.000 C 
ATOM     36  H   UNL     1       7.066   2.113  -8.842  0.00  0.00    +0.000 HD
ATOM     37  H   UNL     1       6.556   3.672  -9.513  0.00  0.00    +0.000 HD
BRANCH  35  38
ATOM     38  O   UNL     1       5.087   2.200  -9.366  0.00  0.00    +0.000 OA
BRANCH  38  39
ATOM     39  C   UNL     1       4.635   2.557  -8.055  0.00  0.00    +0.000 C 
ATOM     40  H   UNL     1       3.667   3.069  -8.138  0.00  0.00    +0.000 HD
BRANCH  39  41
ATOM     41  C   UNL     1       4.515   1.325  -7.174  0.00  0.00    +0.000 A 
ATOM     42  C   UNL     1       5.346   0.217  -7.391  0.00  0.00    +0.000 A 
ATOM     43  C   UNL     1       5.263  -0.922  -6.574  0.00  0.00    +0.000 A 
ATOM     44  C   UNL     1       4.312  -0.950  -5.540  0.00  0.00    +0.000 A 
ATOM     45  C   UNL     1       3.459   0.142  -5.310  0.00  0.00    +0.000 A 
ATOM     46  C   UNL     1       3.575   1.273  -6.132  0.00  0.00    +0.000 A 
ATOM     47  H   UNL     1       6.075   0.239  -8.202  0.00  0.00    +0.000 HD
ATOM     48  H   UNL     1       4.233  -1.833  -4.904  0.00  0.00    +0.000 HD
ATOM     49  H   UNL     1       2.929   2.134  -5.955  0.00  0.00    +0.000 HD
BRANCH  43  50
ATOM     50  C   UNL     1       6.161  -2.110  -6.828  0.00  0.00    +0.000 C 
ATOM     51  F   UNL     1       6.374  -2.338  -8.155  0.00  0.00    +0.000 F 
ATOM     52  F   UNL     1       5.644  -3.265  -6.327  0.00  0.00    +0.000 F 
ATOM     53  F   UNL     1       7.398  -1.977  -6.272  0.00  0.00    +0.000 F 
ENDBRANCH  43  50
BRANCH  45  54
ATOM     54  C   UNL     1       2.452   0.096  -4.185  0.00  0.00    +0.000 C 
ATOM     55  F   UNL     1       1.762  -1.074  -4.106  0.00  0.00    +0.000 F 
ATOM     56  F   UNL     1       1.521   1.087  -4.278  0.00  0.00    +0.000 F 
ATOM     57  F   UNL     1       3.039   0.258  -2.962  0.00  0.00    +0.000 F 
ENDBRANCH  45  54
ENDBRANCH  39  41
BRANCH  39  58
ATOM     58  C   UNL     1       5.648   3.539  -7.471  0.00  0.00    +0.000 C 
ATOM     59  H   UNL     1       6.388   3.004  -6.866  0.00  0.00    +0.000 HD
ATOM     60  H   UNL     1       5.168   4.265  -6.805  0.00  0.00    +0.000 HD
ATOM     61  H   UNL     1       6.174   4.089  -8.258  0.00  0.00    +0.000 HD
ENDBRANCH  39  58
ENDBRANCH  38  39
ENDBRANCH  35  38
ENDBRANCH   9  35
TORSDOF 8
ENDMDL
