MODEL 1
REMARK VINA RESULT:    -5.269      0.000      0.000
REMARK INTER + INTRA:         -15.393
REMARK INTER:                 -12.046
REMARK INTRA:                  -3.347
REMARK UNBOUND:                -3.347
REMARK SMILES CCOC(=O)[C@H](CCCNC(=N)N)NC(=O)[C@H](CCCNC(=N)N)NC(=O)[C@H](CCCNC(=N)N)NC(=O)CC(C)C
REMARK SMILES IDX 17 1 25 2 26 3 27 4 28 6 36 7 37 8 38 9 39 11 40 12 41 13
REMARK SMILES IDX 42 14 29 15 30 16 31 17 32 18 33 19 34 20 35 21 18 26 19 27
REMARK SMILES IDX 20 28 21 29 22 30 23 31 24 32 15 37 16 38 14 39 6 41 7 42
REMARK SMILES IDX 8 43 9 44 10 45 11 46 12 47 13 48 4 53 5 54 3 55 2 56 1 57
REMARK H PARENT 25 5 36 10 32 22 34 23 35 24 35 25 21 33 23 34 24 35 24 36
REMARK H PARENT 14 40 10 49 12 50 13 51 13 52
ROOT
ATOM      1  C   UNL     1       7.051  -0.014  -8.328  1.00  0.00     0.171 C 
ENDROOT
BRANCH   1   2
ATOM      2  N   UNL     1       5.731   0.236  -7.746  1.00  0.00    -0.343 N 
ATOM      3  C   UNL     1       5.595   0.423  -6.384  1.00  0.00     0.243 C 
ATOM      4  O   UNL     1       6.541   0.226  -5.611  1.00  0.00    -0.273 OA
ATOM      5  H   UNL     1       5.098   0.741  -8.352  1.00  0.00     0.164 HD
BRANCH   3   6
ATOM      6  C   UNL     1       4.159   0.697  -5.850  1.00  0.00     0.171 C 
BRANCH   6   7
ATOM      7  N   UNL     1       3.286   0.820  -7.026  1.00  0.00    -0.344 N 
ATOM      8  C   UNL     1       1.965   1.232  -6.933  1.00  0.00     0.220 C 
ATOM      9  O   UNL     1       1.483   1.733  -5.927  1.00  0.00    -0.275 OA
ATOM     10  H   UNL     1       3.450   0.112  -7.734  1.00  0.00     0.164 HD
BRANCH   8  11
ATOM     11  C   UNL     1       1.202   1.054  -8.238  1.00  0.00     0.103 C 
BRANCH  11  12
ATOM     12  C   UNL     1       1.440   2.192  -9.242  1.00  0.00    -0.008 C 
ATOM     13  C   UNL     1       0.943   1.785 -10.631  1.00  0.00     0.008 C 
ATOM     14  C   UNL     1       0.752   3.484  -8.803  1.00  0.00     0.008 C 
ENDBRANCH  11  12
ENDBRANCH   8  11
ENDBRANCH   6   7
BRANCH   6  15
ATOM     15  C   UNL     1       3.630  -0.224  -4.738  1.00  0.00     0.037 C 
BRANCH  15  16
ATOM     16  C   UNL     1       3.501  -1.709  -5.140  1.00  0.00     0.024 C 
BRANCH  16  17
ATOM     17  C   UNL     1       4.412  -2.657  -4.364  1.00  0.00     0.116 C 
BRANCH  17  18
ATOM     18  N   UNL     1       5.733  -2.099  -4.097  1.00  0.00    -0.357 N 
ATOM     19  C   UNL     1       6.838  -2.883  -4.123  1.00  0.00     0.185 C 
ATOM     20  N   UNL     1       6.869  -4.136  -3.856  1.00  0.00    -0.270 NA
ATOM     21  N   UNL     1       7.908  -2.206  -4.579  1.00  0.00    -0.370 N 
ATOM     22  H   UNL     1       5.864  -1.254  -4.638  1.00  0.00     0.163 HD
ATOM     23  H   UNL     1       7.809  -4.501  -4.006  1.00  0.00     0.191 HD
ATOM     24  H   UNL     1       8.784  -2.694  -4.411  1.00  0.00     0.159 HD
ATOM     25  H   UNL     1       7.973  -1.272  -4.184  1.00  0.00     0.159 HD
ENDBRANCH  17  18
ENDBRANCH  16  17
ENDBRANCH  15  16
ENDBRANCH   6  15
ENDBRANCH   3   6
ENDBRANCH   1   2
BRANCH   1  26
ATOM     26  C   UNL     1       7.130  -1.466  -8.818  1.00  0.00     0.037 C 
BRANCH  26  27
ATOM     27  C   UNL     1       7.044  -2.473  -7.669  1.00  0.00     0.024 C 
BRANCH  27  28
ATOM     28  C   UNL     1       5.671  -3.137  -7.588  1.00  0.00     0.116 C 
BRANCH  28  29
ATOM     29  N   UNL     1       5.765  -4.308  -6.743  1.00  0.00    -0.357 N 
ATOM     30  C   UNL     1       4.876  -5.323  -6.735  1.00  0.00     0.185 C 
ATOM     31  N   UNL     1       3.741  -5.401  -7.325  1.00  0.00    -0.270 NA
ATOM     32  N   UNL     1       5.293  -6.342  -5.963  1.00  0.00    -0.370 N 
ATOM     33  H   UNL     1       6.717  -4.641  -6.620  1.00  0.00     0.163 HD
ATOM     34  H   UNL     1       3.575  -4.553  -7.857  1.00  0.00     0.191 HD
ATOM     35  H   UNL     1       5.642  -6.034  -5.065  1.00  0.00     0.159 HD
ATOM     36  H   UNL     1       4.530  -6.999  -5.836  1.00  0.00     0.159 HD
ENDBRANCH  28  29
ENDBRANCH  27  28
ENDBRANCH  26  27
ENDBRANCH   1  26
BRANCH   1  37
ATOM     37  C   UNL     1       7.244   0.987  -9.483  1.00  0.00     0.243 C 
ATOM     38  O   UNL     1       7.971   1.974  -9.379  1.00  0.00    -0.273 OA
ATOM     39  N   UNL     1       6.514   0.708 -10.620  1.00  0.00    -0.341 N 
ATOM     40  H   UNL     1       5.758   0.038 -10.548  1.00  0.00     0.164 HD
BRANCH  39  41
ATOM     41  C   UNL     1       6.466   1.645 -11.752  1.00  0.00     0.192 C 
BRANCH  41  42
ATOM     42  C   UNL     1       6.620   0.855 -13.059  1.00  0.00     0.039 C 
BRANCH  42  43
ATOM     43  C   UNL     1       7.483   1.524 -14.139  1.00  0.00     0.024 C 
BRANCH  43  44
ATOM     44  C   UNL     1       7.016   2.911 -14.587  1.00  0.00     0.116 C 
BRANCH  44  45
ATOM     45  N   UNL     1       5.754   2.833 -15.287  1.00  0.00    -0.357 N 
ATOM     46  C   UNL     1       4.772   3.752 -15.182  1.00  0.00     0.185 C 
ATOM     47  N   UNL     1       4.792   4.881 -14.579  1.00  0.00    -0.270 NA
ATOM     48  N   UNL     1       3.664   3.362 -15.839  1.00  0.00    -0.370 N 
ATOM     49  H   UNL     1       5.372   1.893 -15.377  1.00  0.00     0.163 HD
ATOM     50  H   UNL     1       5.701   5.022 -14.141  1.00  0.00     0.191 HD
ATOM     51  H   UNL     1       3.861   3.171 -16.815  1.00  0.00     0.159 HD
ATOM     52  H   UNL     1       2.985   4.119 -15.797  1.00  0.00     0.159 HD
ENDBRANCH  44  45
ENDBRANCH  43  44
ENDBRANCH  42  43
ENDBRANCH  41  42
BRANCH  41  53
ATOM     53  C   UNL     1       5.105   2.358 -11.708  1.00  0.00     0.328 C 
ATOM     54  O   UNL     1       4.022   1.784 -11.751  1.00  0.00    -0.250 OA
BRANCH  53  55
ATOM     55  O   UNL     1       5.274   3.713 -11.670  1.00  0.00    -0.464 OA
BRANCH  55  56
ATOM     56  C   UNL     1       5.824   4.236 -10.453  1.00  0.00     0.229 C 
ATOM     57  C   UNL     1       4.862   4.008  -9.302  1.00  0.00     0.049 C 
ENDBRANCH  55  56
ENDBRANCH  53  55
ENDBRANCH  41  53
ENDBRANCH  39  41
ENDBRANCH   1  37
TORSDOF 22
ENDMDL
MODEL 2
REMARK VINA RESULT:    -4.925      1.307      2.352
REMARK INTER + INTRA:         -14.607
REMARK INTER:                 -12.442
REMARK INTRA:                  -2.165
REMARK UNBOUND:                -3.347
REMARK SMILES CCOC(=O)[C@H](CCCNC(=N)N)NC(=O)[C@H](CCCNC(=N)N)NC(=O)[C@H](CCCNC(=N)N)NC(=O)CC(C)C
REMARK SMILES IDX 17 1 25 2 26 3 27 4 28 6 36 7 37 8 38 9 39 11 40 12 41 13
REMARK SMILES IDX 42 14 29 15 30 16 31 17 32 18 33 19 34 20 35 21 18 26 19 27
REMARK SMILES IDX 20 28 21 29 22 30 23 31 24 32 15 37 16 38 14 39 6 41 7 42
REMARK SMILES IDX 8 43 9 44 10 45 11 46 12 47 13 48 4 53 5 54 3 55 2 56 1 57
REMARK H PARENT 25 5 36 10 32 22 34 23 35 24 35 25 21 33 23 34 24 35 24 36
REMARK H PARENT 14 40 10 49 12 50 13 51 13 52
ROOT
ATOM      1  C   UNL     1       6.301   0.641  -8.183  1.00  0.00     0.171 C 
ENDROOT
BRANCH   1   2
ATOM      2  N   UNL     1       4.969   1.008  -7.700  1.00  0.00    -0.343 N 
ATOM      3  C   UNL     1       4.666   0.916  -6.356  1.00  0.00     0.243 C 
ATOM      4  O   UNL     1       5.442   0.377  -5.557  1.00  0.00    -0.273 OA
ATOM      5  H   UNL     1       4.524   1.747  -8.230  1.00  0.00     0.164 HD
BRANCH   3   6
ATOM      6  C   UNL     1       3.231   1.340  -5.926  1.00  0.00     0.171 C 
BRANCH   6   7
ATOM      7  N   UNL     1       2.545   1.807  -7.140  1.00  0.00    -0.344 N 
ATOM      8  C   UNL     1       1.207   2.169  -7.147  1.00  0.00     0.220 C 
ATOM      9  O   UNL     1       0.549   2.345  -6.131  1.00  0.00    -0.275 OA
ATOM     10  H   UNL     1       2.853   1.344  -7.988  1.00  0.00     0.164 HD
BRANCH   8  11
ATOM     11  C   UNL     1       0.665   2.387  -8.552  1.00  0.00     0.103 C 
BRANCH  11  12
ATOM     12  C   UNL     1       0.728   1.128  -9.431  1.00  0.00    -0.008 C 
ATOM     13  C   UNL     1      -0.590   0.355  -9.344  1.00  0.00     0.008 C 
ATOM     14  C   UNL     1       1.031   1.473 -10.889  1.00  0.00     0.008 C 
ENDBRANCH  11  12
ENDBRANCH   8  11
ENDBRANCH   6   7
BRANCH   6  15
ATOM     15  C   UNL     1       2.429   0.351  -5.064  1.00  0.00     0.037 C 
BRANCH  15  16
ATOM     16  C   UNL     1       2.534  -1.123  -5.510  1.00  0.00     0.024 C 
BRANCH  16  17
ATOM     17  C   UNL     1       3.651  -1.912  -4.833  1.00  0.00     0.116 C 
BRANCH  17  18
ATOM     18  N   UNL     1       4.447  -2.701  -5.767  1.00  0.00    -0.357 N 
ATOM     19  C   UNL     1       4.955  -3.905  -5.406  1.00  0.00     0.185 C 
ATOM     20  N   UNL     1       5.271  -4.252  -4.213  1.00  0.00    -0.270 NA
ATOM     21  N   UNL     1       4.987  -4.755  -6.448  1.00  0.00    -0.370 N 
ATOM     22  H   UNL     1       3.978  -2.749  -6.662  1.00  0.00     0.163 HD
ATOM     23  H   UNL     1       5.572  -5.226  -4.202  1.00  0.00     0.191 HD
ATOM     24  H   UNL     1       5.550  -5.581  -6.265  1.00  0.00     0.159 HD
ATOM     25  H   UNL     1       5.320  -4.313  -7.299  1.00  0.00     0.159 HD
ENDBRANCH  17  18
ENDBRANCH  16  17
ENDBRANCH  15  16
ENDBRANCH   6  15
ENDBRANCH   3   6
ENDBRANCH   1   2
BRANCH   1  26
ATOM     26  C   UNL     1       6.227  -0.699  -8.928  1.00  0.00     0.037 C 
BRANCH  26  27
ATOM     27  C   UNL     1       7.006  -1.805  -8.215  1.00  0.00     0.024 C 
BRANCH  27  28
ATOM     28  C   UNL     1       8.015  -1.244  -7.214  1.00  0.00     0.116 C 
BRANCH  28  29
ATOM     29  N   UNL     1       8.149  -2.173  -6.112  1.00  0.00    -0.357 N 
ATOM     30  C   UNL     1       7.981  -1.852  -4.813  1.00  0.00     0.185 C 
ATOM     31  N   UNL     1       7.827  -0.694  -4.284  1.00  0.00    -0.270 NA
ATOM     32  N   UNL     1       8.019  -2.940  -4.023  1.00  0.00    -0.370 N 
ATOM     33  H   UNL     1       7.788  -3.100  -6.320  1.00  0.00     0.163 HD
ATOM     34  H   UNL     1       7.828   0.014  -5.012  1.00  0.00     0.191 HD
ATOM     35  H   UNL     1       8.789  -3.556  -4.245  1.00  0.00     0.159 HD
ATOM     36  H   UNL     1       8.072  -2.647  -3.053  1.00  0.00     0.159 HD
ENDBRANCH  28  29
ENDBRANCH  27  28
ENDBRANCH  26  27
ENDBRANCH   1  26
BRANCH   1  37
ATOM     37  C   UNL     1       6.790   1.777  -9.102  1.00  0.00     0.243 C 
ATOM     38  O   UNL     1       6.793   2.954  -8.742  1.00  0.00    -0.273 OA
ATOM     39  N   UNL     1       7.188   1.375 -10.360  1.00  0.00    -0.341 N 
ATOM     40  H   UNL     1       6.923   0.447 -10.668  1.00  0.00     0.164 HD
BRANCH  39  41
ATOM     41  C   UNL     1       7.532   2.349 -11.405  1.00  0.00     0.192 C 
BRANCH  41  42
ATOM     42  C   UNL     1       8.072   1.595 -12.628  1.00  0.00     0.039 C 
BRANCH  42  43
ATOM     43  C   UNL     1       7.040   1.282 -13.722  1.00  0.00     0.024 C 
BRANCH  43  44
ATOM     44  C   UNL     1       7.049   2.228 -14.925  1.00  0.00     0.116 C 
BRANCH  44  45
ATOM     45  N   UNL     1       5.743   2.811 -15.136  1.00  0.00    -0.357 N 
ATOM     46  C   UNL     1       5.185   2.997 -16.350  1.00  0.00     0.185 C 
ATOM     47  N   UNL     1       5.607   2.608 -17.495  1.00  0.00    -0.270 NA
ATOM     48  N   UNL     1       4.025   3.674 -16.258  1.00  0.00    -0.370 N 
ATOM     49  H   UNL     1       5.506   3.571 -14.501  1.00  0.00     0.163 HD
ATOM     50  H   UNL     1       6.489   2.109 -17.385  1.00  0.00     0.191 HD
ATOM     51  H   UNL     1       3.372   3.206 -15.640  1.00  0.00     0.159 HD
ATOM     52  H   UNL     1       3.607   3.718 -17.184  1.00  0.00     0.159 HD
ENDBRANCH  44  45
ENDBRANCH  43  44
ENDBRANCH  42  43
ENDBRANCH  41  42
BRANCH  41  53
ATOM     53  C   UNL     1       6.251   3.118 -11.765  1.00  0.00     0.328 C 
ATOM     54  O   UNL     1       6.234   4.233 -12.273  1.00  0.00    -0.250 OA
BRANCH  53  55
ATOM     55  O   UNL     1       5.145   2.409 -11.390  1.00  0.00    -0.464 OA
BRANCH  55  56
ATOM     56  C   UNL     1       3.946   3.176 -11.217  1.00  0.00     0.229 C 
ATOM     57  C   UNL     1       3.862   3.707  -9.799  1.00  0.00     0.049 C 
ENDBRANCH  55  56
ENDBRANCH  53  55
ENDBRANCH  41  53
ENDBRANCH  39  41
ENDBRANCH   1  37
TORSDOF 22
ENDMDL
MODEL 3
REMARK VINA RESULT:    -4.622      2.261      6.698
REMARK INTER + INTRA:         -13.914
REMARK INTER:                 -10.682
REMARK INTRA:                  -3.231
REMARK UNBOUND:                -3.347
REMARK SMILES CCOC(=O)[C@H](CCCNC(=N)N)NC(=O)[C@H](CCCNC(=N)N)NC(=O)[C@H](CCCNC(=N)N)NC(=O)CC(C)C
REMARK SMILES IDX 17 1 25 2 26 3 27 4 28 6 36 7 37 8 38 9 39 11 40 12 41 13
REMARK SMILES IDX 42 14 29 15 30 16 31 17 32 18 33 19 34 20 35 21 18 26 19 27
REMARK SMILES IDX 20 28 21 29 22 30 23 31 24 32 15 37 16 38 14 39 6 41 7 42
REMARK SMILES IDX 8 43 9 44 10 45 11 46 12 47 13 48 4 53 5 54 3 55 2 56 1 57
REMARK H PARENT 25 5 36 10 32 22 34 23 35 24 35 25 21 33 23 34 24 35 24 36
REMARK H PARENT 14 40 10 49 12 50 13 51 13 52
ROOT
ATOM      1  C   UNL     1       3.768   1.321  -7.741  1.00  0.00     0.171 C 
ENDROOT
BRANCH   1   2
ATOM      2  N   UNL     1       3.456   1.264  -9.170  1.00  0.00    -0.343 N 
ATOM      3  C   UNL     1       3.311   2.428  -9.899  1.00  0.00     0.243 C 
ATOM      4  O   UNL     1       3.279   3.534  -9.344  1.00  0.00    -0.273 OA
ATOM      5  H   UNL     1       3.840   0.459  -9.648  1.00  0.00     0.164 HD
BRANCH   3   6
ATOM      6  C   UNL     1       2.993   2.277 -11.415  1.00  0.00     0.171 C 
BRANCH   6   7
ATOM      7  N   UNL     1       4.267   2.428 -12.132  1.00  0.00    -0.344 N 
ATOM      8  C   UNL     1       5.325   1.548 -11.964  1.00  0.00     0.220 C 
ATOM      9  O   UNL     1       5.223   0.470 -11.395  1.00  0.00    -0.275 OA
ATOM     10  H   UNL     1       4.549   3.393 -12.269  1.00  0.00     0.164 HD
BRANCH   8  11
ATOM     11  C   UNL     1       6.607   2.038 -12.622  1.00  0.00     0.103 C 
BRANCH  11  12
ATOM     12  C   UNL     1       6.368   3.118 -13.689  1.00  0.00    -0.008 C 
ATOM     13  C   UNL     1       7.278   4.322 -13.437  1.00  0.00     0.008 C 
ATOM     14  C   UNL     1       6.603   2.577 -15.100  1.00  0.00     0.008 C 
ENDBRANCH  11  12
ENDBRANCH   8  11
ENDBRANCH   6   7
BRANCH   6  15
ATOM     15  C   UNL     1       2.142   1.070 -11.843  1.00  0.00     0.037 C 
BRANCH  15  16
ATOM     16  C   UNL     1       0.799   0.931 -11.097  1.00  0.00     0.024 C 
BRANCH  16  17
ATOM     17  C   UNL     1       0.308   2.213 -10.430  1.00  0.00     0.116 C 
BRANCH  17  18
ATOM     18  N   UNL     1       0.351   2.160  -8.973  1.00  0.00    -0.357 N 
ATOM     19  C   UNL     1       0.133   3.271  -8.228  1.00  0.00     0.185 C 
ATOM     20  N   UNL     1       0.383   4.473  -8.594  1.00  0.00    -0.270 NA
ATOM     21  N   UNL     1      -0.493   2.972  -7.075  1.00  0.00    -0.370 N 
ATOM     22  H   UNL     1      -0.199   1.377  -8.642  1.00  0.00     0.163 HD
ATOM     23  H   UNL     1       0.073   5.127  -7.876  1.00  0.00     0.191 HD
ATOM     24  H   UNL     1      -0.480   3.740  -6.409  1.00  0.00     0.159 HD
ATOM     25  H   UNL     1      -0.110   2.144  -6.628  1.00  0.00     0.159 HD
ENDBRANCH  17  18
ENDBRANCH  16  17
ENDBRANCH  15  16
ENDBRANCH   6  15
ENDBRANCH   3   6
ENDBRANCH   1   2
BRANCH   1  26
ATOM     26  C   UNL     1       2.597   0.742  -6.935  1.00  0.00     0.037 C 
BRANCH  26  27
ATOM     27  C   UNL     1       2.403   1.457  -5.597  1.00  0.00     0.024 C 
BRANCH  27  28
ATOM     28  C   UNL     1       2.352   0.479  -4.425  1.00  0.00     0.116 C 
BRANCH  28  29
ATOM     29  N   UNL     1       3.697   0.041  -4.120  1.00  0.00    -0.357 N 
ATOM     30  C   UNL     1       4.241  -1.119  -4.540  1.00  0.00     0.185 C 
ATOM     31  N   UNL     1       3.675  -2.102  -5.137  1.00  0.00    -0.270 NA
ATOM     32  N   UNL     1       5.549  -1.195  -4.234  1.00  0.00    -0.370 N 
ATOM     33  H   UNL     1       4.377   0.797  -4.120  1.00  0.00     0.163 HD
ATOM     34  H   UNL     1       2.694  -1.889  -5.286  1.00  0.00     0.191 HD
ATOM     35  H   UNL     1       5.742  -0.919  -3.280  1.00  0.00     0.159 HD
ATOM     36  H   UNL     1       5.876  -2.141  -4.399  1.00  0.00     0.159 HD
ENDBRANCH  28  29
ENDBRANCH  27  28
ENDBRANCH  26  27
ENDBRANCH   1  26
BRANCH   1  37
ATOM     37  C   UNL     1       5.064   0.518  -7.519  1.00  0.00     0.243 C 
ATOM     38  O   UNL     1       5.817   0.741  -6.572  1.00  0.00    -0.273 OA
ATOM     39  N   UNL     1       5.325  -0.438  -8.478  1.00  0.00    -0.341 N 
ATOM     40  H   UNL     1       4.808  -0.394  -9.348  1.00  0.00     0.164 HD
BRANCH  39  41
ATOM     41  C   UNL     1       6.594  -1.180  -8.498  1.00  0.00     0.192 C 
BRANCH  41  42
ATOM     42  C   UNL     1       7.756  -0.180  -8.428  1.00  0.00     0.039 C 
BRANCH  42  43
ATOM     43  C   UNL     1       8.149   0.473  -9.762  1.00  0.00     0.024 C 
BRANCH  43  44
ATOM     44  C   UNL     1       8.120   2.003  -9.779  1.00  0.00     0.116 C 
BRANCH  44  45
ATOM     45  N   UNL     1       7.241   2.517  -8.753  1.00  0.00    -0.357 N 
ATOM     46  C   UNL     1       6.452   3.600  -8.906  1.00  0.00     0.185 C 
ATOM     47  N   UNL     1       6.229   4.288  -9.964  1.00  0.00    -0.270 NA
ATOM     48  N   UNL     1       5.840   3.928  -7.753  1.00  0.00    -0.370 N 
ATOM     49  H   UNL     1       7.610   2.461  -7.806  1.00  0.00     0.163 HD
ATOM     50  H   UNL     1       6.764   3.904 -10.742  1.00  0.00     0.191 HD
ATOM     51  H   UNL     1       5.302   3.151  -7.387  1.00  0.00     0.159 HD
ATOM     52  H   UNL     1       5.199   4.696  -7.939  1.00  0.00     0.159 HD
ENDBRANCH  44  45
ENDBRANCH  43  44
ENDBRANCH  42  43
ENDBRANCH  41  42
BRANCH  41  53
ATOM     53  C   UNL     1       6.607  -2.112  -7.276  1.00  0.00     0.328 C 
ATOM     54  O   UNL     1       7.392  -2.011  -6.339  1.00  0.00    -0.250 OA
BRANCH  53  55
ATOM     55  O   UNL     1       5.665  -3.092  -7.410  1.00  0.00    -0.464 OA
BRANCH  55  56
ATOM     56  C   UNL     1       5.643  -4.078  -6.368  1.00  0.00     0.229 C 
ATOM     57  C   UNL     1       4.711  -5.214  -6.740  1.00  0.00     0.049 C 
ENDBRANCH  55  56
ENDBRANCH  53  55
ENDBRANCH  41  53
ENDBRANCH  39  41
ENDBRANCH   1  37
TORSDOF 22
ENDMDL
MODEL 4
REMARK VINA RESULT:    -4.590      1.851      4.278
REMARK INTER + INTRA:         -13.842
REMARK INTER:                 -13.058
REMARK INTRA:                  -0.783
REMARK UNBOUND:                -3.347
REMARK SMILES CCOC(=O)[C@H](CCCNC(=N)N)NC(=O)[C@H](CCCNC(=N)N)NC(=O)[C@H](CCCNC(=N)N)NC(=O)CC(C)C
REMARK SMILES IDX 17 1 25 2 26 3 27 4 28 6 36 7 37 8 38 9 39 11 40 12 41 13
REMARK SMILES IDX 42 14 29 15 30 16 31 17 32 18 33 19 34 20 35 21 18 26 19 27
REMARK SMILES IDX 20 28 21 29 22 30 23 31 24 32 15 37 16 38 14 39 6 41 7 42
REMARK SMILES IDX 8 43 9 44 10 45 11 46 12 47 13 48 4 53 5 54 3 55 2 56 1 57
REMARK H PARENT 25 5 36 10 32 22 34 23 35 24 35 25 21 33 23 34 24 35 24 36
REMARK H PARENT 14 40 10 49 12 50 13 51 13 52
ROOT
ATOM      1  C   UNL     1       5.349   0.271 -10.465  1.00  0.00     0.171 C 
ENDROOT
BRANCH   1   2
ATOM      2  N   UNL     1       5.589  -0.090  -9.067  1.00  0.00    -0.343 N 
ATOM      3  C   UNL     1       6.008   0.866  -8.163  1.00  0.00     0.243 C 
ATOM      4  O   UNL     1       6.345   1.998  -8.534  1.00  0.00    -0.273 OA
ATOM      5  H   UNL     1       4.992  -0.830  -8.721  1.00  0.00     0.164 HD
BRANCH   3   6
ATOM      6  C   UNL     1       6.226   0.400  -6.694  1.00  0.00     0.171 C 
BRANCH   6   7
ATOM      7  N   UNL     1       4.891   0.236  -6.099  1.00  0.00    -0.344 N 
ATOM      8  C   UNL     1       3.843   1.102  -6.370  1.00  0.00     0.220 C 
ATOM      9  O   UNL     1       3.864   1.926  -7.274  1.00  0.00    -0.275 OA
ATOM     10  H   UNL     1       4.907  -0.110  -5.145  1.00  0.00     0.164 HD
BRANCH   8  11
ATOM     11  C   UNL     1       2.642   0.872  -5.463  1.00  0.00     0.103 C 
BRANCH  11  12
ATOM     12  C   UNL     1       2.906  -0.159  -4.354  1.00  0.00    -0.008 C 
ATOM     13  C   UNL     1       2.547   0.430  -2.989  1.00  0.00     0.008 C 
ATOM     14  C   UNL     1       2.119  -1.449  -4.586  1.00  0.00     0.008 C 
ENDBRANCH  11  12
ENDBRANCH   8  11
ENDBRANCH   6   7
BRANCH   6  15
ATOM     15  C   UNL     1       7.193  -0.772  -6.458  1.00  0.00     0.037 C 
BRANCH  15  16
ATOM     16  C   UNL     1       7.574  -1.004  -4.981  1.00  0.00     0.024 C 
BRANCH  16  17
ATOM     17  C   UNL     1       7.382  -2.437  -4.493  1.00  0.00     0.116 C 
BRANCH  17  18
ATOM     18  N   UNL     1       6.520  -3.232  -5.361  1.00  0.00    -0.357 N 
ATOM     19  C   UNL     1       5.386  -3.801  -4.885  1.00  0.00     0.185 C 
ATOM     20  N   UNL     1       5.192  -4.175  -3.675  1.00  0.00    -0.270 NA
ATOM     21  N   UNL     1       4.421  -3.831  -5.823  1.00  0.00    -0.370 N 
ATOM     22  H   UNL     1       6.350  -2.733  -6.225  1.00  0.00     0.163 HD
ATOM     23  H   UNL     1       4.238  -4.516  -3.564  1.00  0.00     0.191 HD
ATOM     24  H   UNL     1       3.644  -4.434  -5.569  1.00  0.00     0.159 HD
ATOM     25  H   UNL     1       4.774  -4.115  -6.733  1.00  0.00     0.159 HD
ENDBRANCH  17  18
ENDBRANCH  16  17
ENDBRANCH  15  16
ENDBRANCH   6  15
ENDBRANCH   3   6
ENDBRANCH   1   2
BRANCH   1  26
ATOM     26  C   UNL     1       4.213   1.300 -10.543  1.00  0.00     0.037 C 
BRANCH  26  27
ATOM     27  C   UNL     1       3.328   1.097 -11.774  1.00  0.00     0.024 C 
BRANCH  27  28
ATOM     28  C   UNL     1       1.843   1.060 -11.414  1.00  0.00     0.116 C 
BRANCH  28  29
ATOM     29  N   UNL     1       1.506   2.267 -10.690  1.00  0.00    -0.357 N 
ATOM     30  C   UNL     1       1.133   2.307  -9.394  1.00  0.00     0.185 C 
ATOM     31  N   UNL     1       0.863   1.334  -8.606  1.00  0.00    -0.270 NA
ATOM     32  N   UNL     1       1.026   3.571  -8.947  1.00  0.00    -0.370 N 
ATOM     33  H   UNL     1       2.087   3.063 -10.939  1.00  0.00     0.163 HD
ATOM     34  H   UNL     1       0.986   0.454  -9.098  1.00  0.00     0.191 HD
ATOM     35  H   UNL     1       0.519   4.169  -9.586  1.00  0.00     0.159 HD
ATOM     36  H   UNL     1       0.574   3.567  -8.038  1.00  0.00     0.159 HD
ENDBRANCH  28  29
ENDBRANCH  27  28
ENDBRANCH  26  27
ENDBRANCH   1  26
BRANCH   1  37
ATOM     37  C   UNL     1       6.668   0.835 -11.029  1.00  0.00     0.243 C 
ATOM     38  O   UNL     1       7.744   0.259 -10.874  1.00  0.00    -0.273 OA
ATOM     39  N   UNL     1       6.548   2.042 -11.686  1.00  0.00    -0.341 N 
ATOM     40  H   UNL     1       5.694   2.571 -11.557  1.00  0.00     0.164 HD
BRANCH  39  41
ATOM     41  C   UNL     1       7.729   2.787 -12.146  1.00  0.00     0.192 C 
BRANCH  41  42
ATOM     42  C   UNL     1       8.149   2.253 -13.522  1.00  0.00     0.039 C 
BRANCH  42  43
ATOM     43  C   UNL     1       7.014   1.681 -14.385  1.00  0.00     0.024 C 
BRANCH  43  44
ATOM     44  C   UNL     1       6.742   2.428 -15.693  1.00  0.00     0.116 C 
BRANCH  44  45
ATOM     45  N   UNL     1       5.324   2.628 -15.892  1.00  0.00    -0.357 N 
ATOM     46  C   UNL     1       4.593   3.561 -15.248  1.00  0.00     0.185 C 
ATOM     47  N   UNL     1       4.994   4.494 -14.466  1.00  0.00    -0.270 NA
ATOM     48  N   UNL     1       3.283   3.437 -15.529  1.00  0.00    -0.370 N 
ATOM     49  H   UNL     1       4.788   1.774 -16.036  1.00  0.00     0.163 HD
ATOM     50  H   UNL     1       6.007   4.448 -14.366  1.00  0.00     0.191 HD
ATOM     51  H   UNL     1       3.113   3.487 -16.527  1.00  0.00     0.159 HD
ATOM     52  H   UNL     1       2.788   4.208 -15.086  1.00  0.00     0.159 HD
ENDBRANCH  44  45
ENDBRANCH  43  44
ENDBRANCH  42  43
ENDBRANCH  41  42
BRANCH  41  53
ATOM     53  C   UNL     1       7.336   4.270 -12.237  1.00  0.00     0.328 C 
ATOM     54  O   UNL     1       8.075   5.156 -12.651  1.00  0.00    -0.250 OA
BRANCH  53  55
ATOM     55  O   UNL     1       6.078   4.464 -11.740  1.00  0.00    -0.464 OA
BRANCH  55  56
ATOM     56  C   UNL     1       5.995   4.669 -10.323  1.00  0.00     0.229 C 
ATOM     57  C   UNL     1       4.551   4.601  -9.866  1.00  0.00     0.049 C 
ENDBRANCH  55  56
ENDBRANCH  53  55
ENDBRANCH  41  53
ENDBRANCH  39  41
ENDBRANCH   1  37
TORSDOF 22
ENDMDL
MODEL 5
REMARK VINA RESULT:    -4.375      1.802      2.625
REMARK INTER + INTRA:         -13.349
REMARK INTER:                 -13.738
REMARK INTRA:                   0.389
REMARK UNBOUND:                -3.347
REMARK SMILES CCOC(=O)[C@H](CCCNC(=N)N)NC(=O)[C@H](CCCNC(=N)N)NC(=O)[C@H](CCCNC(=N)N)NC(=O)CC(C)C
REMARK SMILES IDX 17 1 25 2 26 3 27 4 28 6 36 7 37 8 38 9 39 11 40 12 41 13
REMARK SMILES IDX 42 14 29 15 30 16 31 17 32 18 33 19 34 20 35 21 18 26 19 27
REMARK SMILES IDX 20 28 21 29 22 30 23 31 24 32 15 37 16 38 14 39 6 41 7 42
REMARK SMILES IDX 8 43 9 44 10 45 11 46 12 47 13 48 4 53 5 54 3 55 2 56 1 57
REMARK H PARENT 25 5 36 10 32 22 34 23 35 24 35 25 21 33 23 34 24 35 24 36
REMARK H PARENT 14 40 10 49 12 50 13 51 13 52
ROOT
ATOM      1  C   UNL     1       7.988   0.678  -8.756  1.00  0.00     0.171 C 
ENDROOT
BRANCH   1   2
ATOM      2  N   UNL     1       6.761   1.303  -8.259  1.00  0.00    -0.343 N 
ATOM      3  C   UNL     1       5.535   0.946  -8.785  1.00  0.00     0.243 C 
ATOM      4  O   UNL     1       5.451   0.222  -9.785  1.00  0.00    -0.273 OA
ATOM      5  H   UNL     1       6.792   1.560  -7.281  1.00  0.00     0.164 HD
BRANCH   3   6
ATOM      6  C   UNL     1       4.280   1.649  -8.190  1.00  0.00     0.171 C 
BRANCH   6   7
ATOM      7  N   UNL     1       3.187   1.451  -9.153  1.00  0.00    -0.344 N 
ATOM      8  C   UNL     1       2.365   2.486  -9.570  1.00  0.00     0.220 C 
ATOM      9  O   UNL     1       2.604   3.667  -9.358  1.00  0.00    -0.275 OA
ATOM     10  H   UNL     1       2.713   0.559  -9.057  1.00  0.00     0.164 HD
BRANCH   8  11
ATOM     11  C   UNL     1       1.169   1.998 -10.375  1.00  0.00     0.103 C 
BRANCH  11  12
ATOM     12  C   UNL     1       0.228   1.084  -9.574  1.00  0.00    -0.008 C 
ATOM     13  C   UNL     1      -0.416   1.862  -8.426  1.00  0.00     0.008 C 
ATOM     14  C   UNL     1      -0.858   0.477 -10.463  1.00  0.00     0.008 C 
ENDBRANCH  11  12
ENDBRANCH   8  11
ENDBRANCH   6   7
BRANCH   6  15
ATOM     15  C   UNL     1       3.923   1.341  -6.726  1.00  0.00     0.037 C 
BRANCH  15  16
ATOM     16  C   UNL     1       2.450   0.944  -6.494  1.00  0.00     0.024 C 
BRANCH  16  17
ATOM     17  C   UNL     1       2.022   0.924  -5.029  1.00  0.00     0.116 C 
BRANCH  17  18
ATOM     18  N   UNL     1       3.043   0.388  -4.136  1.00  0.00    -0.357 N 
ATOM     19  C   UNL     1       3.659  -0.788  -4.408  1.00  0.00     0.185 C 
ATOM     20  N   UNL     1       3.147  -1.762  -5.064  1.00  0.00    -0.270 NA
ATOM     21  N   UNL     1       4.941  -0.776  -3.997  1.00  0.00    -0.370 N 
ATOM     22  H   UNL     1       3.711   1.113  -3.905  1.00  0.00     0.163 HD
ATOM     23  H   UNL     1       3.836  -2.504  -5.181  1.00  0.00     0.191 HD
ATOM     24  H   UNL     1       5.361  -1.702  -3.993  1.00  0.00     0.159 HD
ATOM     25  H   UNL     1       5.049  -0.363  -3.076  1.00  0.00     0.159 HD
ENDBRANCH  17  18
ENDBRANCH  16  17
ENDBRANCH  15  16
ENDBRANCH   6  15
ENDBRANCH   3   6
ENDBRANCH   1   2
BRANCH   1  26
ATOM     26  C   UNL     1       7.987  -0.814  -8.396  1.00  0.00     0.037 C 
BRANCH  26  27
ATOM     27  C   UNL     1       7.936  -1.048  -6.885  1.00  0.00     0.024 C 
BRANCH  27  28
ATOM     28  C   UNL     1       6.761  -1.937  -6.480  1.00  0.00     0.116 C 
BRANCH  28  29
ATOM     29  N   UNL     1       7.103  -2.641  -5.263  1.00  0.00    -0.357 N 
ATOM     30  C   UNL     1       6.368  -3.631  -4.716  1.00  0.00     0.185 C 
ATOM     31  N   UNL     1       5.199  -4.040  -5.046  1.00  0.00    -0.270 NA
ATOM     32  N   UNL     1       7.000  -4.201  -3.674  1.00  0.00    -0.370 N 
ATOM     33  H   UNL     1       8.100  -2.813  -5.163  1.00  0.00     0.163 HD
ATOM     34  H   UNL     1       4.864  -3.504  -5.840  1.00  0.00     0.191 HD
ATOM     35  H   UNL     1       7.395  -3.521  -3.038  1.00  0.00     0.159 HD
ATOM     36  H   UNL     1       6.352  -4.807  -3.182  1.00  0.00     0.159 HD
ENDBRANCH  28  29
ENDBRANCH  27  28
ENDBRANCH  26  27
ENDBRANCH   1  26
BRANCH   1  37
ATOM     37  C   UNL     1       8.032   0.895 -10.281  1.00  0.00     0.243 C 
ATOM     38  O   UNL     1       8.149  -0.041 -11.072  1.00  0.00    -0.273 OA
ATOM     39  N   UNL     1       7.964   2.213 -10.681  1.00  0.00    -0.341 N 
ATOM     40  H   UNL     1       8.123   2.931  -9.984  1.00  0.00     0.164 HD
BRANCH  39  41
ATOM     41  C   UNL     1       8.149   2.601 -12.087  1.00  0.00     0.192 C 
BRANCH  41  42
ATOM     42  C   UNL     1       7.892   1.377 -12.977  1.00  0.00     0.039 C 
BRANCH  42  43
ATOM     43  C   UNL     1       6.704   1.499 -13.943  1.00  0.00     0.024 C 
BRANCH  43  44
ATOM     44  C   UNL     1       6.966   2.325 -15.206  1.00  0.00     0.116 C 
BRANCH  44  45
ATOM     45  N   UNL     1       5.743   2.548 -15.943  1.00  0.00    -0.357 N 
ATOM     46  C   UNL     1       4.805   3.455 -15.597  1.00  0.00     0.185 C 
ATOM     47  N   UNL     1       4.850   4.343 -14.675  1.00  0.00    -0.270 NA
ATOM     48  N   UNL     1       3.717   3.358 -16.383  1.00  0.00    -0.370 N 
ATOM     49  H   UNL     1       5.318   1.708 -16.331  1.00  0.00     0.163 HD
ATOM     50  H   UNL     1       5.740   4.282 -14.182  1.00  0.00     0.191 HD
ATOM     51  H   UNL     1       3.959   3.460 -17.362  1.00  0.00     0.159 HD
ATOM     52  H   UNL     1       3.078   4.110 -16.136  1.00  0.00     0.159 HD
ENDBRANCH  44  45
ENDBRANCH  43  44
ENDBRANCH  42  43
ENDBRANCH  41  42
BRANCH  41  53
ATOM     53  C   UNL     1       7.141   3.718 -12.398  1.00  0.00     0.328 C 
ATOM     54  O   UNL     1       7.436   4.791 -12.913  1.00  0.00    -0.250 OA
BRANCH  53  55
ATOM     55  O   UNL     1       5.891   3.369 -11.971  1.00  0.00    -0.464 OA
BRANCH  55  56
ATOM     56  C   UNL     1       5.221   4.339 -11.154  1.00  0.00     0.229 C 
ATOM     57  C   UNL     1       5.905   4.454  -9.807  1.00  0.00     0.049 C 
ENDBRANCH  55  56
ENDBRANCH  53  55
ENDBRANCH  41  53
ENDBRANCH  39  41
ENDBRANCH   1  37
TORSDOF 22
ENDMDL
MODEL 6
REMARK VINA RESULT:    -4.116      1.602      6.232
REMARK INTER + INTRA:         -12.757
REMARK INTER:                 -12.013
REMARK INTRA:                  -0.744
REMARK UNBOUND:                -3.347
REMARK SMILES CCOC(=O)[C@H](CCCNC(=N)N)NC(=O)[C@H](CCCNC(=N)N)NC(=O)[C@H](CCCNC(=N)N)NC(=O)CC(C)C
REMARK SMILES IDX 17 1 25 2 26 3 27 4 28 6 36 7 37 8 38 9 39 11 40 12 41 13
REMARK SMILES IDX 42 14 29 15 30 16 31 17 32 18 33 19 34 20 35 21 18 26 19 27
REMARK SMILES IDX 20 28 21 29 22 30 23 31 24 32 15 37 16 38 14 39 6 41 7 42
REMARK SMILES IDX 8 43 9 44 10 45 11 46 12 47 13 48 4 53 5 54 3 55 2 56 1 57
REMARK H PARENT 25 5 36 10 32 22 34 23 35 24 35 25 21 33 23 34 24 35 24 36
REMARK H PARENT 14 40 10 49 12 50 13 51 13 52
ROOT
ATOM      1  C   UNL     1       6.443   1.022 -11.039  1.00  0.00     0.171 C 
ENDROOT
BRANCH   1   2
ATOM      2  N   UNL     1       6.325  -0.004 -10.002  1.00  0.00    -0.343 N 
ATOM      3  C   UNL     1       6.711   0.270  -8.704  1.00  0.00     0.243 C 
ATOM      4  O   UNL     1       7.309   1.315  -8.418  1.00  0.00    -0.273 OA
ATOM      5  H   UNL     1       5.551  -0.642 -10.134  1.00  0.00     0.164 HD
BRANCH   3   6
ATOM      6  C   UNL     1       6.539  -0.873  -7.661  1.00  0.00     0.171 C 
BRANCH   6   7
ATOM      7  N   UNL     1       5.581  -0.389  -6.656  1.00  0.00    -0.344 N 
ATOM      8  C   UNL     1       5.788  -0.544  -5.294  1.00  0.00     0.220 C 
ATOM      9  O   UNL     1       6.857  -0.884  -4.808  1.00  0.00    -0.275 OA
ATOM     10  H   UNL     1       4.611  -0.476  -6.941  1.00  0.00     0.164 HD
BRANCH   8  11
ATOM     11  C   UNL     1       4.561  -0.182  -4.470  1.00  0.00     0.103 C 
BRANCH  11  12
ATOM     12  C   UNL     1       3.242  -0.322  -5.247  1.00  0.00    -0.008 C 
ATOM     13  C   UNL     1       2.600  -1.681  -4.960  1.00  0.00     0.008 C 
ATOM     14  C   UNL     1       2.262   0.799  -4.899  1.00  0.00     0.008 C 
ENDBRANCH  11  12
ENDBRANCH   8  11
ENDBRANCH   6   7
BRANCH   6  15
ATOM     15  C   UNL     1       6.262  -2.287  -8.198  1.00  0.00     0.037 C 
BRANCH  15  16
ATOM     16  C   UNL     1       6.439  -3.415  -7.161  1.00  0.00     0.024 C 
BRANCH  16  17
ATOM     17  C   UNL     1       5.240  -3.625  -6.240  1.00  0.00     0.116 C 
BRANCH  17  18
ATOM     18  N   UNL     1       5.173  -4.969  -5.676  1.00  0.00    -0.357 N 
ATOM     19  C   UNL     1       4.864  -6.035  -6.453  1.00  0.00     0.185 C 
ATOM     20  N   UNL     1       4.132  -6.003  -7.505  1.00  0.00    -0.270 NA
ATOM     21  N   UNL     1       5.516  -7.141  -6.050  1.00  0.00    -0.370 N 
ATOM     22  H   UNL     1       5.995  -5.146  -5.113  1.00  0.00     0.163 HD
ATOM     23  H   UNL     1       4.104  -6.925  -7.938  1.00  0.00     0.191 HD
ATOM     24  H   UNL     1       5.149  -7.990  -6.471  1.00  0.00     0.159 HD
ATOM     25  H   UNL     1       5.512  -7.247  -5.040  1.00  0.00     0.159 HD
ENDBRANCH  17  18
ENDBRANCH  16  17
ENDBRANCH  15  16
ENDBRANCH   6  15
ENDBRANCH   3   6
ENDBRANCH   1   2
BRANCH   1  26
ATOM     26  C   UNL     1       6.728   0.356 -12.391  1.00  0.00     0.037 C 
BRANCH  26  27
ATOM     27  C   UNL     1       7.858   1.049 -13.155  1.00  0.00     0.024 C 
BRANCH  27  28
ATOM     28  C   UNL     1       7.481   2.467 -13.579  1.00  0.00     0.116 C 
BRANCH  28  29
ATOM     29  N   UNL     1       6.470   2.394 -14.613  1.00  0.00    -0.357 N 
ATOM     30  C   UNL     1       5.523   3.330 -14.829  1.00  0.00     0.185 C 
ATOM     31  N   UNL     1       5.229   4.353 -14.116  1.00  0.00    -0.270 NA
ATOM     32  N   UNL     1       4.817   3.074 -15.944  1.00  0.00    -0.370 N 
ATOM     33  H   UNL     1       6.812   1.997 -15.484  1.00  0.00     0.163 HD
ATOM     34  H   UNL     1       5.847   4.398 -13.313  1.00  0.00     0.191 HD
ATOM     35  H   UNL     1       4.526   2.107 -16.008  1.00  0.00     0.159 HD
ATOM     36  H   UNL     1       4.008   3.686 -15.975  1.00  0.00     0.159 HD
ENDBRANCH  28  29
ENDBRANCH  27  28
ENDBRANCH  26  27
ENDBRANCH   1  26
BRANCH   1  37
ATOM     37  C   UNL     1       5.120   1.812 -11.060  1.00  0.00     0.243 C 
ATOM     38  O   UNL     1       4.854   2.617 -11.951  1.00  0.00    -0.273 OA
ATOM     39  N   UNL     1       4.283   1.569  -9.991  1.00  0.00    -0.341 N 
ATOM     40  H   UNL     1       4.669   1.098  -9.181  1.00  0.00     0.164 HD
BRANCH  39  41
ATOM     41  C   UNL     1       3.058   2.353  -9.781  1.00  0.00     0.192 C 
BRANCH  41  42
ATOM     42  C   UNL     1       3.301   3.792 -10.257  1.00  0.00     0.039 C 
BRANCH  42  43
ATOM     43  C   UNL     1       4.122   4.674  -9.305  1.00  0.00     0.024 C 
BRANCH  43  44
ATOM     44  C   UNL     1       5.564   4.219  -9.067  1.00  0.00     0.116 C 
BRANCH  44  45
ATOM     45  N   UNL     1       5.834   4.068  -7.655  1.00  0.00    -0.357 N 
ATOM     46  C   UNL     1       5.230   3.160  -6.861  1.00  0.00     0.185 C 
ATOM     47  N   UNL     1       4.432   2.213  -7.189  1.00  0.00    -0.270 NA
ATOM     48  N   UNL     1       5.577   3.329  -5.571  1.00  0.00    -0.370 N 
ATOM     49  H   UNL     1       6.003   4.940  -7.156  1.00  0.00     0.163 HD
ATOM     50  H   UNL     1       4.281   2.224  -8.196  1.00  0.00     0.191 HD
ATOM     51  H   UNL     1       6.582   3.286  -5.451  1.00  0.00     0.159 HD
ATOM     52  H   UNL     1       5.161   2.576  -5.028  1.00  0.00     0.159 HD
ENDBRANCH  44  45
ENDBRANCH  43  44
ENDBRANCH  42  43
ENDBRANCH  41  42
BRANCH  41  53
ATOM     53  C   UNL     1       1.937   1.694 -10.600  1.00  0.00     0.328 C 
ATOM     54  O   UNL     1       2.084   1.234 -11.727  1.00  0.00    -0.250 OA
BRANCH  53  55
ATOM     55  O   UNL     1       0.752   1.746  -9.921  1.00  0.00    -0.464 OA
BRANCH  55  56
ATOM     56  C   UNL     1       0.834   1.493  -8.512  1.00  0.00     0.229 C 
ATOM     57  C   UNL     1       0.130   2.591  -7.739  1.00  0.00     0.049 C 
ENDBRANCH  55  56
ENDBRANCH  53  55
ENDBRANCH  41  53
ENDBRANCH  39  41
ENDBRANCH   1  37
TORSDOF 22
ENDMDL
MODEL 7
REMARK VINA RESULT:    -4.042      1.775      6.110
REMARK INTER + INTRA:         -12.589
REMARK INTER:                  -9.749
REMARK INTRA:                  -2.840
REMARK UNBOUND:                -3.347
REMARK SMILES CCOC(=O)[C@H](CCCNC(=N)N)NC(=O)[C@H](CCCNC(=N)N)NC(=O)[C@H](CCCNC(=N)N)NC(=O)CC(C)C
REMARK SMILES IDX 17 1 25 2 26 3 27 4 28 6 36 7 37 8 38 9 39 11 40 12 41 13
REMARK SMILES IDX 42 14 29 15 30 16 31 17 32 18 33 19 34 20 35 21 18 26 19 27
REMARK SMILES IDX 20 28 21 29 22 30 23 31 24 32 15 37 16 38 14 39 6 41 7 42
REMARK SMILES IDX 8 43 9 44 10 45 11 46 12 47 13 48 4 53 5 54 3 55 2 56 1 57
REMARK H PARENT 25 5 36 10 32 22 34 23 35 24 35 25 21 33 23 34 24 35 24 36
REMARK H PARENT 14 40 10 49 12 50 13 51 13 52
ROOT
ATOM      1  C   UNL     1       6.383   1.323 -11.736  1.00  0.00     0.171 C 
ENDROOT
BRANCH   1   2
ATOM      2  N   UNL     1       6.656   0.504 -10.553  1.00  0.00    -0.343 N 
ATOM      3  C   UNL     1       7.466   0.987  -9.544  1.00  0.00     0.243 C 
ATOM      4  O   UNL     1       8.104   2.039  -9.679  1.00  0.00    -0.273 OA
ATOM      5  H   UNL     1       5.898  -0.111 -10.290  1.00  0.00     0.164 HD
BRANCH   3   6
ATOM      6  C   UNL     1       7.693   0.057  -8.316  1.00  0.00     0.171 C 
BRANCH   6   7
ATOM      7  N   UNL     1       6.760   0.501  -7.270  1.00  0.00    -0.344 N 
ATOM      8  C   UNL     1       5.386   0.506  -7.452  1.00  0.00     0.220 C 
ATOM      9  O   UNL     1       4.825  -0.052  -8.384  1.00  0.00    -0.275 OA
ATOM     10  H   UNL     1       7.107   1.274  -6.712  1.00  0.00     0.164 HD
BRANCH   8  11
ATOM     11  C   UNL     1       4.649   1.224  -6.330  1.00  0.00     0.103 C 
BRANCH  11  12
ATOM     12  C   UNL     1       3.650   0.325  -5.584  1.00  0.00    -0.008 C 
ATOM     13  C   UNL     1       4.326  -0.331  -4.378  1.00  0.00     0.008 C 
ATOM     14  C   UNL     1       2.420   1.108  -5.127  1.00  0.00     0.008 C 
ENDBRANCH  11  12
ENDBRANCH   8  11
ENDBRANCH   6   7
BRANCH   6  15
ATOM     15  C   UNL     1       7.714  -1.459  -8.570  1.00  0.00     0.037 C 
BRANCH  15  16
ATOM     16  C   UNL     1       7.351  -2.322  -7.343  1.00  0.00     0.024 C 
BRANCH  16  17
ATOM     17  C   UNL     1       5.971  -2.972  -7.410  1.00  0.00     0.116 C 
BRANCH  17  18
ATOM     18  N   UNL     1       5.305  -3.045  -6.115  1.00  0.00    -0.357 N 
ATOM     19  C   UNL     1       5.213  -4.219  -5.444  1.00  0.00     0.185 C 
ATOM     20  N   UNL     1       5.180  -5.382  -5.980  1.00  0.00    -0.270 NA
ATOM     21  N   UNL     1       5.274  -4.029  -4.113  1.00  0.00    -0.370 N 
ATOM     22  H   UNL     1       5.636  -2.300  -5.516  1.00  0.00     0.163 HD
ATOM     23  H   UNL     1       5.171  -6.100  -5.256  1.00  0.00     0.191 HD
ATOM     24  H   UNL     1       4.998  -4.852  -3.585  1.00  0.00     0.159 HD
ATOM     25  H   UNL     1       4.712  -3.240  -3.808  1.00  0.00     0.159 HD
ENDBRANCH  17  18
ENDBRANCH  16  17
ENDBRANCH  15  16
ENDBRANCH   6  15
ENDBRANCH   3   6
ENDBRANCH   1   2
BRANCH   1  26
ATOM     26  C   UNL     1       6.614   0.490 -13.003  1.00  0.00     0.037 C 
BRANCH  26  27
ATOM     27  C   UNL     1       7.454   1.233 -14.044  1.00  0.00     0.024 C 
BRANCH  27  28
ATOM     28  C   UNL     1       6.975   2.669 -14.249  1.00  0.00     0.116 C 
BRANCH  28  29
ATOM     29  N   UNL     1       5.789   2.655 -15.077  1.00  0.00    -0.357 N 
ATOM     30  C   UNL     1       4.913   3.675 -15.182  1.00  0.00     0.185 C 
ATOM     31  N   UNL     1       4.855   4.758 -14.499  1.00  0.00    -0.270 NA
ATOM     32  N   UNL     1       3.991   3.442 -16.133  1.00  0.00    -0.370 N 
ATOM     33  H   UNL     1       5.924   2.182 -15.967  1.00  0.00     0.163 HD
ATOM     34  H   UNL     1       5.613   4.775 -13.824  1.00  0.00     0.191 HD
ATOM     35  H   UNL     1       3.601   2.510 -16.079  1.00  0.00     0.159 HD
ATOM     36  H   UNL     1       3.253   4.136 -16.060  1.00  0.00     0.159 HD
ENDBRANCH  28  29
ENDBRANCH  27  28
ENDBRANCH  26  27
ENDBRANCH   1  26
BRANCH   1  37
ATOM     37  C   UNL     1       4.926   1.811 -11.633  1.00  0.00     0.243 C 
ATOM     38  O   UNL     1       4.530   2.818 -12.220  1.00  0.00    -0.273 OA
ATOM     39  N   UNL     1       4.118   1.055 -10.810  1.00  0.00    -0.341 N 
ATOM     40  H   UNL     1       4.563   0.406 -10.172  1.00  0.00     0.164 HD
BRANCH  39  41
ATOM     41  C   UNL     1       2.747   1.474 -10.482  1.00  0.00     0.192 C 
BRANCH  41  42
ATOM     42  C   UNL     1       2.660   3.004 -10.574  1.00  0.00     0.039 C 
BRANCH  42  43
ATOM     43  C   UNL     1       2.694   3.750  -9.232  1.00  0.00     0.024 C 
BRANCH  43  44
ATOM     44  C   UNL     1       3.472   5.068  -9.232  1.00  0.00     0.116 C 
BRANCH  44  45
ATOM     45  N   UNL     1       4.576   5.019 -10.162  1.00  0.00    -0.357 N 
ATOM     46  C   UNL     1       5.815   4.589  -9.845  1.00  0.00     0.185 C 
ATOM     47  N   UNL     1       6.222   4.048  -8.757  1.00  0.00    -0.270 NA
ATOM     48  N   UNL     1       6.674   4.773 -10.864  1.00  0.00    -0.370 N 
ATOM     49  H   UNL     1       4.613   5.792 -10.825  1.00  0.00     0.163 HD
ATOM     50  H   UNL     1       5.449   3.980  -8.097  1.00  0.00     0.191 HD
ATOM     51  H   UNL     1       6.350   4.314 -11.708  1.00  0.00     0.159 HD
ATOM     52  H   UNL     1       7.568   4.363 -10.606  1.00  0.00     0.159 HD
ENDBRANCH  44  45
ENDBRANCH  43  44
ENDBRANCH  42  43
ENDBRANCH  41  42
BRANCH  41  53
ATOM     53  C   UNL     1       1.803   0.816 -11.501  1.00  0.00     0.328 C 
ATOM     54  O   UNL     1       2.154  -0.014 -12.332  1.00  0.00    -0.250 OA
BRANCH  53  55
ATOM     55  O   UNL     1       0.541   1.327 -11.385  1.00  0.00    -0.464 OA
BRANCH  55  56
ATOM     56  C   UNL     1      -0.418   0.472 -10.748  1.00  0.00     0.229 C 
ATOM     57  C   UNL     1      -0.405   0.694  -9.249  1.00  0.00     0.049 C 
ENDBRANCH  55  56
ENDBRANCH  53  55
ENDBRANCH  41  53
ENDBRANCH  39  41
ENDBRANCH   1  37
TORSDOF 22
ENDMDL
MODEL 8
REMARK VINA RESULT:    -3.580      1.868      6.029
REMARK INTER + INTRA:         -11.533
REMARK INTER:                 -12.366
REMARK INTRA:                   0.833
REMARK UNBOUND:                -3.347
REMARK SMILES CCOC(=O)[C@H](CCCNC(=N)N)NC(=O)[C@H](CCCNC(=N)N)NC(=O)[C@H](CCCNC(=N)N)NC(=O)CC(C)C
REMARK SMILES IDX 17 1 25 2 26 3 27 4 28 6 36 7 37 8 38 9 39 11 40 12 41 13
REMARK SMILES IDX 42 14 29 15 30 16 31 17 32 18 33 19 34 20 35 21 18 26 19 27
REMARK SMILES IDX 20 28 21 29 22 30 23 31 24 32 15 37 16 38 14 39 6 41 7 42
REMARK SMILES IDX 8 43 9 44 10 45 11 46 12 47 13 48 4 53 5 54 3 55 2 56 1 57
REMARK H PARENT 25 5 36 10 32 22 34 23 35 24 35 25 21 33 23 34 24 35 24 36
REMARK H PARENT 14 40 10 49 12 50 13 51 13 52
ROOT
ATOM      1  C   UNL     1       7.959   1.692 -10.712  1.00  0.00     0.171 C 
ENDROOT
BRANCH   1   2
ATOM      2  N   UNL     1       7.903   1.040  -9.403  1.00  0.00    -0.343 N 
ATOM      3  C   UNL     1       7.097  -0.065  -9.209  1.00  0.00     0.243 C 
ATOM      4  O   UNL     1       6.290  -0.431 -10.073  1.00  0.00    -0.273 OA
ATOM      5  H   UNL     1       8.767   1.085  -8.878  1.00  0.00     0.164 HD
BRANCH   3   6
ATOM      6  C   UNL     1       7.107  -0.706  -7.791  1.00  0.00     0.171 C 
BRANCH   6   7
ATOM      7  N   UNL     1       5.989  -0.107  -7.047  1.00  0.00    -0.344 N 
ATOM      8  C   UNL     1       5.918  -0.130  -5.663  1.00  0.00     0.220 C 
ATOM      9  O   UNL     1       6.857  -0.439  -4.943  1.00  0.00    -0.275 OA
ATOM     10  H   UNL     1       5.091  -0.202  -7.510  1.00  0.00     0.164 HD
BRANCH   8  11
ATOM     11  C   UNL     1       4.568   0.335  -5.137  1.00  0.00     0.103 C 
BRANCH  11  12
ATOM     12  C   UNL     1       3.377  -0.298  -5.873  1.00  0.00    -0.008 C 
ATOM     13  C   UNL     1       2.492  -1.064  -4.888  1.00  0.00     0.008 C 
ATOM     14  C   UNL     1       2.545   0.754  -6.607  1.00  0.00     0.008 C 
ENDBRANCH  11  12
ENDBRANCH   8  11
ENDBRANCH   6   7
BRANCH   6  15
ATOM     15  C   UNL     1       7.199  -2.238  -7.706  1.00  0.00     0.037 C 
BRANCH  15  16
ATOM     16  C   UNL     1       5.847  -2.953  -7.500  1.00  0.00     0.024 C 
BRANCH  16  17
ATOM     17  C   UNL     1       5.475  -3.200  -6.041  1.00  0.00     0.116 C 
BRANCH  17  18
ATOM     18  N   UNL     1       5.441  -4.615  -5.686  1.00  0.00    -0.357 N 
ATOM     19  C   UNL     1       4.795  -5.514  -6.468  1.00  0.00     0.185 C 
ATOM     20  N   UNL     1       3.785  -5.261  -7.215  1.00  0.00    -0.270 NA
ATOM     21  N   UNL     1       5.418  -6.707  -6.459  1.00  0.00    -0.370 N 
ATOM     22  H   UNL     1       6.371  -4.931  -5.447  1.00  0.00     0.163 HD
ATOM     23  H   UNL     1       3.526  -6.093  -7.744  1.00  0.00     0.191 HD
ATOM     24  H   UNL     1       4.850  -7.450  -6.858  1.00  0.00     0.159 HD
ATOM     25  H   UNL     1       5.712  -6.984  -5.527  1.00  0.00     0.159 HD
ENDBRANCH  17  18
ENDBRANCH  16  17
ENDBRANCH  15  16
ENDBRANCH   6  15
ENDBRANCH   3   6
ENDBRANCH   1   2
BRANCH   1  26
ATOM     26  C   UNL     1       8.102   0.629 -11.810  1.00  0.00     0.037 C 
BRANCH  26  27
ATOM     27  C   UNL     1       7.323   0.992 -13.076  1.00  0.00     0.024 C 
BRANCH  27  28
ATOM     28  C   UNL     1       7.929   2.194 -13.799  1.00  0.00     0.116 C 
BRANCH  28  29
ATOM     29  N   UNL     1       6.992   3.296 -13.745  1.00  0.00    -0.357 N 
ATOM     30  C   UNL     1       5.882   3.397 -14.503  1.00  0.00     0.185 C 
ATOM     31  N   UNL     1       5.511   2.664 -15.487  1.00  0.00    -0.270 NA
ATOM     32  N   UNL     1       5.124   4.446 -14.137  1.00  0.00    -0.370 N 
ATOM     33  H   UNL     1       6.840   3.650 -12.805  1.00  0.00     0.163 HD
ATOM     34  H   UNL     1       6.192   1.926 -15.636  1.00  0.00     0.191 HD
ATOM     35  H   UNL     1       5.665   5.290 -14.005  1.00  0.00     0.159 HD
ATOM     36  H   UNL     1       4.403   4.597 -14.835  1.00  0.00     0.159 HD
ENDBRANCH  28  29
ENDBRANCH  27  28
ENDBRANCH  26  27
ENDBRANCH   1  26
BRANCH   1  37
ATOM     37  C   UNL     1       6.664   2.510 -10.876  1.00  0.00     0.243 C 
ATOM     38  O   UNL     1       6.668   3.740 -10.908  1.00  0.00    -0.273 OA
ATOM     39  N   UNL     1       5.510   1.760 -10.951  1.00  0.00    -0.341 N 
ATOM     40  H   UNL     1       5.554   0.788 -10.668  1.00  0.00     0.164 HD
BRANCH  39  41
ATOM     41  C   UNL     1       4.182   2.390 -10.953  1.00  0.00     0.192 C 
BRANCH  41  42
ATOM     42  C   UNL     1       3.110   1.291 -10.986  1.00  0.00     0.039 C 
BRANCH  42  43
ATOM     43  C   UNL     1       1.656   1.785 -11.013  1.00  0.00     0.024 C 
BRANCH  43  44
ATOM     44  C   UNL     1       0.942   1.803  -9.659  1.00  0.00     0.116 C 
BRANCH  44  45
ATOM     45  N   UNL     1       0.747   3.156  -9.192  1.00  0.00    -0.357 N 
ATOM     46  C   UNL     1       0.095   3.479  -8.056  1.00  0.00     0.185 C 
ATOM     47  N   UNL     1      -0.354   2.703  -7.141  1.00  0.00    -0.270 NA
ATOM     48  N   UNL     1      -0.049   4.812  -7.935  1.00  0.00    -0.370 N 
ATOM     49  H   UNL     1       0.572   3.841  -9.925  1.00  0.00     0.163 HD
ATOM     50  H   UNL     1      -0.158   1.733  -7.386  1.00  0.00     0.191 HD
ATOM     51  H   UNL     1       0.846   5.285  -7.971  1.00  0.00     0.159 HD
ATOM     52  H   UNL     1      -0.473   5.006  -7.031  1.00  0.00     0.159 HD
ENDBRANCH  44  45
ENDBRANCH  43  44
ENDBRANCH  42  43
ENDBRANCH  41  42
BRANCH  41  53
ATOM     53  C   UNL     1       4.061   3.225  -9.668  1.00  0.00     0.328 C 
ATOM     54  O   UNL     1       3.577   4.350  -9.618  1.00  0.00    -0.250 OA
BRANCH  53  55
ATOM     55  O   UNL     1       4.618   2.561  -8.611  1.00  0.00    -0.464 OA
BRANCH  55  56
ATOM     56  C   UNL     1       5.567   3.309  -7.840  1.00  0.00     0.229 C 
ATOM     57  C   UNL     1       5.176   3.303  -6.375  1.00  0.00     0.049 C 
ENDBRANCH  55  56
ENDBRANCH  53  55
ENDBRANCH  41  53
ENDBRANCH  39  41
ENDBRANCH   1  37
TORSDOF 22
ENDMDL
MODEL 9
REMARK VINA RESULT:    -2.999      2.184      8.176
REMARK INTER + INTRA:         -10.202
REMARK INTER:                 -11.112
REMARK INTRA:                   0.909
REMARK UNBOUND:                -3.347
REMARK SMILES CCOC(=O)[C@H](CCCNC(=N)N)NC(=O)[C@H](CCCNC(=N)N)NC(=O)[C@H](CCCNC(=N)N)NC(=O)CC(C)C
REMARK SMILES IDX 17 1 25 2 26 3 27 4 28 6 36 7 37 8 38 9 39 11 40 12 41 13
REMARK SMILES IDX 42 14 29 15 30 16 31 17 32 18 33 19 34 20 35 21 18 26 19 27
REMARK SMILES IDX 20 28 21 29 22 30 23 31 24 32 15 37 16 38 14 39 6 41 7 42
REMARK SMILES IDX 8 43 9 44 10 45 11 46 12 47 13 48 4 53 5 54 3 55 2 56 1 57
REMARK H PARENT 25 5 36 10 32 22 34 23 35 24 35 25 21 33 23 34 24 35 24 36
REMARK H PARENT 14 40 10 49 12 50 13 51 13 52
ROOT
ATOM      1  C   UNL     1       3.724   2.367 -10.605  1.00  0.00     0.171 C 
ENDROOT
BRANCH   1   2
ATOM      2  N   UNL     1       5.063   1.997 -11.069  1.00  0.00    -0.343 N 
ATOM      3  C   UNL     1       5.282   0.763 -11.650  1.00  0.00     0.243 C 
ATOM      4  O   UNL     1       4.408  -0.113 -11.647  1.00  0.00    -0.273 OA
ATOM      5  H   UNL     1       5.617   2.775 -11.403  1.00  0.00     0.164 HD
BRANCH   3   6
ATOM      6  C   UNL     1       6.731   0.456 -12.128  1.00  0.00     0.171 C 
BRANCH   6   7
ATOM      7  N   UNL     1       6.876   1.065 -13.458  1.00  0.00    -0.344 N 
ATOM      8  C   UNL     1       7.032   2.430 -13.640  1.00  0.00     0.220 C 
ATOM      9  O   UNL     1       7.283   3.208 -12.730  1.00  0.00    -0.275 OA
ATOM     10  H   UNL     1       6.324   0.612 -14.179  1.00  0.00     0.164 HD
BRANCH   8  11
ATOM     11  C   UNL     1       6.923   2.844 -15.100  1.00  0.00     0.103 C 
BRANCH  11  12
ATOM     12  C   UNL     1       5.505   2.694 -15.671  1.00  0.00    -0.008 C 
ATOM     13  C   UNL     1       4.602   3.813 -15.148  1.00  0.00     0.008 C 
ATOM     14  C   UNL     1       5.509   2.703 -17.200  1.00  0.00     0.008 C 
ENDBRANCH  11  12
ENDBRANCH   8  11
ENDBRANCH   6   7
BRANCH   6  15
ATOM     15  C   UNL     1       7.878   0.752 -11.148  1.00  0.00     0.037 C 
BRANCH  15  16
ATOM     16  C   UNL     1       7.425   1.246  -9.758  1.00  0.00     0.024 C 
BRANCH  16  17
ATOM     17  C   UNL     1       7.981   2.609  -9.356  1.00  0.00     0.116 C 
BRANCH  17  18
ATOM     18  N   UNL     1       7.039   3.412  -8.585  1.00  0.00    -0.357 N 
ATOM     19  C   UNL     1       6.161   4.240  -9.202  1.00  0.00     0.185 C 
ATOM     20  N   UNL     1       6.346   4.813 -10.333  1.00  0.00    -0.270 NA
ATOM     21  N   UNL     1       4.997   4.307  -8.530  1.00  0.00    -0.370 N 
ATOM     22  H   UNL     1       6.580   2.833  -7.893  1.00  0.00     0.163 HD
ATOM     23  H   UNL     1       5.512   5.334 -10.601  1.00  0.00     0.191 HD
ATOM     24  H   UNL     1       4.404   5.072  -8.844  1.00  0.00     0.159 HD
ATOM     25  H   UNL     1       5.132   4.389  -7.526  1.00  0.00     0.159 HD
ENDBRANCH  17  18
ENDBRANCH  16  17
ENDBRANCH  15  16
ENDBRANCH   6  15
ENDBRANCH   3   6
ENDBRANCH   1   2
BRANCH   1  26
ATOM     26  C   UNL     1       2.672   1.804 -11.570  1.00  0.00     0.037 C 
BRANCH  26  27
ATOM     27  C   UNL     1       1.641   0.926 -10.859  1.00  0.00     0.024 C 
BRANCH  27  28
ATOM     28  C   UNL     1       0.306   1.644 -10.669  1.00  0.00     0.116 C 
BRANCH  28  29
ATOM     29  N   UNL     1       0.032   1.759  -9.253  1.00  0.00    -0.357 N 
ATOM     30  C   UNL     1       0.128   2.901  -8.542  1.00  0.00     0.185 C 
ATOM     31  N   UNL     1       0.601   4.036  -8.904  1.00  0.00    -0.270 NA
ATOM     32  N   UNL     1      -0.329   2.744  -7.287  1.00  0.00    -0.370 N 
ATOM     33  H   UNL     1      -0.753   1.190  -8.947  1.00  0.00     0.163 HD
ATOM     34  H   UNL     1       0.907   3.983  -9.871  1.00  0.00     0.191 HD
ATOM     35  H   UNL     1       0.019   1.903  -6.847  1.00  0.00     0.159 HD
ATOM     36  H   UNL     1      -0.076   3.558  -6.735  1.00  0.00     0.159 HD
ENDBRANCH  28  29
ENDBRANCH  27  28
ENDBRANCH  26  27
ENDBRANCH   1  26
BRANCH   1  37
ATOM     37  C   UNL     1       3.555   1.799  -9.183  1.00  0.00     0.243 C 
ATOM     38  O   UNL     1       2.660   2.179  -8.429  1.00  0.00    -0.273 OA
ATOM     39  N   UNL     1       4.499   0.862  -8.817  1.00  0.00    -0.341 N 
ATOM     40  H   UNL     1       5.337   0.786  -9.380  1.00  0.00     0.164 HD
BRANCH  39  41
ATOM     41  C   UNL     1       4.571   0.339  -7.445  1.00  0.00     0.192 C 
BRANCH  41  42
ATOM     42  C   UNL     1       5.852  -0.493  -7.297  1.00  0.00     0.039 C 
BRANCH  42  43
ATOM     43  C   UNL     1       6.383  -0.641  -5.864  1.00  0.00     0.024 C 
BRANCH  43  44
ATOM     44  C   UNL     1       7.304  -1.841  -5.624  1.00  0.00     0.116 C 
BRANCH  44  45
ATOM     45  N   UNL     1       6.743  -2.737  -4.639  1.00  0.00    -0.357 N 
ATOM     46  C   UNL     1       5.667  -3.523  -4.855  1.00  0.00     0.185 C 
ATOM     47  N   UNL     1       5.029  -3.726  -5.947  1.00  0.00    -0.270 NA
ATOM     48  N   UNL     1       5.288  -4.154  -3.729  1.00  0.00    -0.370 N 
ATOM     49  H   UNL     1       6.756  -2.385  -3.683  1.00  0.00     0.163 HD
ATOM     50  H   UNL     1       5.448  -3.178  -6.697  1.00  0.00     0.191 HD
ATOM     51  H   UNL     1       6.047  -4.700  -3.337  1.00  0.00     0.159 HD
ATOM     52  H   UNL     1       4.529  -4.790  -3.960  1.00  0.00     0.159 HD
ENDBRANCH  44  45
ENDBRANCH  43  44
ENDBRANCH  42  43
ENDBRANCH  41  42
BRANCH  41  53
ATOM     53  C   UNL     1       4.593   1.542  -6.489  1.00  0.00     0.328 C 
ATOM     54  O   UNL     1       5.449   2.419  -6.503  1.00  0.00    -0.250 OA
BRANCH  53  55
ATOM     55  O   UNL     1       3.563   1.463  -5.595  1.00  0.00    -0.464 OA
BRANCH  55  56
ATOM     56  C   UNL     1       2.853   0.217  -5.576  1.00  0.00     0.229 C 
ATOM     57  C   UNL     1       2.327  -0.067  -4.183  1.00  0.00     0.049 C 
ENDBRANCH  55  56
ENDBRANCH  53  55
ENDBRANCH  41  53
ENDBRANCH  39  41
ENDBRANCH   1  37
TORSDOF 22
ENDMDL
