MODEL 1
REMARK VINA RESULT:    -5.755      0.000      0.000
REMARK INTER + INTRA:          -7.152
REMARK INTER:                  -6.932
REMARK INTRA:                  -0.219
REMARK UNBOUND:                -0.219
REMARK SMILES CCCN[C@H]1CCc2nc(N)sc2C1
REMARK SMILES IDX 4 1 3 3 2 4 1 5 5 6 6 7 14 8 7 9 13 10 8 11 12 12 9 13 10 14
REMARK SMILES IDX 11 15
REMARK H PARENT 4 2 11 16 11 17
ROOT
ATOM      1  N   UNL     1     102.775 121.735  90.647  1.00  0.00    -0.314 NA
ATOM      2  H   UNL     1     102.741 121.202  91.516  1.00  0.00     0.122 HD
ENDROOT
BRANCH   1   3
ATOM      3  C   UNL     1     104.147 122.160  90.370  1.00  0.00     0.081 C 
BRANCH   3   4
ATOM      4  C   UNL     1     105.165 121.246  91.061  1.00  0.00     0.012 C 
ATOM      5  C   UNL     1     106.465 121.949  91.430  1.00  0.00     0.005 C 
ENDBRANCH   3   4
ENDBRANCH   1   3
BRANCH   1   6
ATOM      6  C   UNL     1     101.822 122.855  90.705  1.00  0.00     0.059 C 
ATOM      7  C   UNL     1     102.598 124.112  91.180  1.00  0.00     0.026 C 
ATOM      8  C   UNL     1     101.108 123.123  89.348  1.00  0.00     0.067 C 
ATOM      9  C   UNL     1     101.664 125.315  91.400  1.00  0.00     0.059 C 
ATOM     10  C   UNL     1     100.448 124.459  89.364  1.00  0.00     0.031 A 
ATOM     11  C   UNL     1     100.705 125.464  90.272  1.00  0.00     0.057 A 
ATOM     12  S   UNL     1      99.289 124.973  88.232  1.00  0.00    -0.102 S 
ATOM     13  N   UNL     1      99.986 126.625  90.083  1.00  0.00    -0.225 NA
ATOM     14  C   UNL     1      99.213 126.498  89.030  1.00  0.00     0.180 A 
BRANCH  14  15
ATOM     15  N   UNL     1      98.394 127.472  88.602  1.00  0.00    -0.375 N 
ATOM     16  H   UNL     1      98.535 128.366  89.057  1.00  0.00     0.159 HD
ATOM     17  H   UNL     1      97.418 127.228  88.480  1.00  0.00     0.159 HD
ENDBRANCH  14  15
ENDBRANCH   1   6
TORSDOF 4
ENDMDL
MODEL 2
REMARK VINA RESULT:    -5.452      1.141      1.363
REMARK INTER + INTRA:          -6.787
REMARK INTER:                  -6.605
REMARK INTRA:                  -0.182
REMARK UNBOUND:                -0.219
REMARK SMILES CCCN[C@H]1CCc2nc(N)sc2C1
REMARK SMILES IDX 4 1 3 3 2 4 1 5 5 6 6 7 14 8 7 9 13 10 8 11 12 12 9 13 10 14
REMARK SMILES IDX 11 15
REMARK H PARENT 4 2 11 16 11 17
ROOT
ATOM      1  N   UNL     1     102.108 122.673  89.814  1.00  0.00    -0.314 NA
ATOM      2  H   UNL     1     101.710 121.906  89.273  1.00  0.00     0.122 HD
ENDROOT
BRANCH   1   3
ATOM      3  C   UNL     1     102.661 122.169  91.070  1.00  0.00     0.081 C 
BRANCH   3   4
ATOM      4  C   UNL     1     103.812 121.188  90.820  1.00  0.00     0.012 C 
ATOM      5  C   UNL     1     105.192 121.814  90.971  1.00  0.00     0.005 C 
ENDBRANCH   3   4
ENDBRANCH   1   3
BRANCH   1   6
ATOM      6  C   UNL     1     101.100 123.728  90.007  1.00  0.00     0.059 C 
ATOM      7  C   UNL     1     101.709 124.798  90.951  1.00  0.00     0.026 C 
ATOM      8  C   UNL     1     100.624 124.372  88.672  1.00  0.00     0.067 C 
ATOM      9  C   UNL     1     100.686 125.886  91.323  1.00  0.00     0.059 C 
ATOM     10  C   UNL     1      99.899 125.647  88.941  1.00  0.00     0.031 A 
ATOM     11  C   UNL     1      99.936 126.351  90.125  1.00  0.00     0.057 A 
ATOM     12  S   UNL     1      98.933 126.462  87.805  1.00  0.00    -0.102 S 
ATOM     13  N   UNL     1      99.199 127.515  90.141  1.00  0.00    -0.225 NA
ATOM     14  C   UNL     1      98.633 127.694  88.971  1.00  0.00     0.180 A 
BRANCH  14  15
ATOM     15  N   UNL     1      97.850 128.748  88.689  1.00  0.00    -0.375 N 
ATOM     16  H   UNL     1      98.305 129.647  88.800  1.00  0.00     0.159 HD
ATOM     17  H   UNL     1      96.904 128.725  89.050  1.00  0.00     0.159 HD
ENDBRANCH  14  15
ENDBRANCH   1   6
TORSDOF 4
ENDMDL
MODEL 3
REMARK VINA RESULT:    -4.741      2.750      3.613
REMARK INTER + INTRA:          -5.930
REMARK INTER:                  -5.674
REMARK INTRA:                  -0.256
REMARK UNBOUND:                -0.219
REMARK SMILES CCCN[C@H]1CCc2nc(N)sc2C1
REMARK SMILES IDX 4 1 3 3 2 4 1 5 5 6 6 7 14 8 7 9 13 10 8 11 12 12 9 13 10 14
REMARK SMILES IDX 11 15
REMARK H PARENT 4 2 11 16 11 17
ROOT
ATOM      1  N   UNL     1     101.544 122.675  86.757  1.00  0.00    -0.314 NA
ATOM      2  H   UNL     1     101.312 121.682  86.732  1.00  0.00     0.122 HD
ENDROOT
BRANCH   1   3
ATOM      3  C   UNL     1     102.985 122.860  86.598  1.00  0.00     0.081 C 
BRANCH   3   4
ATOM      4  C   UNL     1     103.304 123.785  85.418  1.00  0.00     0.012 C 
ATOM      5  C   UNL     1     103.636 123.042  84.131  1.00  0.00     0.005 C 
ENDBRANCH   3   4
ENDBRANCH   1   3
BRANCH   1   6
ATOM      6  C   UNL     1     101.015 123.284  87.988  1.00  0.00     0.059 C 
ATOM      7  C   UNL     1     102.176 123.362  89.014  1.00  0.00     0.026 C 
ATOM      8  C   UNL     1     100.384 124.688  87.755  1.00  0.00     0.067 C 
ATOM      9  C   UNL     1     101.696 123.867  90.387  1.00  0.00     0.059 C 
ATOM     10  C   UNL     1     100.201 125.397  89.053  1.00  0.00     0.031 A 
ATOM     11  C   UNL     1     100.804 125.049  90.243  1.00  0.00     0.057 A 
ATOM     12  S   UNL     1      99.240 126.782  89.266  1.00  0.00    -0.102 S 
ATOM     13  N   UNL     1     100.500 125.861  91.315  1.00  0.00    -0.225 NA
ATOM     14  C   UNL     1      99.694 126.820  90.927  1.00  0.00     0.180 A 
BRANCH  14  15
ATOM     15  N   UNL     1      99.227 127.766  91.759  1.00  0.00    -0.375 N 
ATOM     16  H   UNL     1      98.705 128.504  91.301  1.00  0.00     0.159 HD
ATOM     17  H   UNL     1      99.864 128.102  92.472  1.00  0.00     0.159 HD
ENDBRANCH  14  15
ENDBRANCH   1   6
TORSDOF 4
ENDMDL
MODEL 4
REMARK VINA RESULT:    -4.719      2.878      5.491
REMARK INTER + INTRA:          -5.904
REMARK INTER:                  -5.685
REMARK INTRA:                  -0.219
REMARK UNBOUND:                -0.219
REMARK SMILES CCCN[C@H]1CCc2nc(N)sc2C1
REMARK SMILES IDX 4 1 3 3 2 4 1 5 5 6 6 7 14 8 7 9 13 10 8 11 12 12 9 13 10 14
REMARK SMILES IDX 11 15
REMARK H PARENT 4 2 11 16 11 17
ROOT
ATOM      1  N   UNL     1      99.184 125.737  89.687  1.00  0.00    -0.314 NA
ATOM      2  H   UNL     1      98.416 125.563  89.039  1.00  0.00     0.122 HD
ENDROOT
BRANCH   1   3
ATOM      3  C   UNL     1      99.209 127.148  90.069  1.00  0.00     0.081 C 
BRANCH   3   4
ATOM      4  C   UNL     1      99.165 127.316  91.592  1.00  0.00     0.012 C 
ATOM      5  C   UNL     1     100.447 126.886  92.292  1.00  0.00     0.005 C 
ENDBRANCH   3   4
ENDBRANCH   1   3
BRANCH   1   6
ATOM      6  C   UNL     1     100.452 125.272  89.103  1.00  0.00     0.059 C 
ATOM      7  C   UNL     1     100.758 123.869  89.690  1.00  0.00     0.026 C 
ATOM      8  C   UNL     1     100.430 125.231  87.547  1.00  0.00     0.067 C 
ATOM      9  C   UNL     1     102.134 123.346  89.240  1.00  0.00     0.059 C 
ATOM     10  C   UNL     1     101.577 124.429  87.033  1.00  0.00     0.031 A 
ATOM     11  C   UNL     1     102.340 123.558  87.782  1.00  0.00     0.057 A 
ATOM     12  S   UNL     1     102.105 124.431  85.418  1.00  0.00    -0.102 S 
ATOM     13  N   UNL     1     103.340 122.910  87.091  1.00  0.00    -0.225 NA
ATOM     14  C   UNL     1     103.312 123.274  85.830  1.00  0.00     0.180 A 
BRANCH  14  15
ATOM     15  N   UNL     1     104.173 122.803  84.913  1.00  0.00    -0.375 N 
ATOM     16  H   UNL     1     104.207 121.792  84.852  1.00  0.00     0.159 HD
ATOM     17  H   UNL     1     105.085 123.242  84.875  1.00  0.00     0.159 HD
ENDBRANCH  14  15
ENDBRANCH   1   6
TORSDOF 4
ENDMDL
MODEL 5
REMARK VINA RESULT:    -4.716      2.110      6.255
REMARK INTER + INTRA:          -5.900
REMARK INTER:                  -5.646
REMARK INTRA:                  -0.254
REMARK UNBOUND:                -0.219
REMARK SMILES CCCN[C@H]1CCc2nc(N)sc2C1
REMARK SMILES IDX 4 1 3 3 2 4 1 5 5 6 6 7 14 8 7 9 13 10 8 11 12 12 9 13 10 14
REMARK SMILES IDX 11 15
REMARK H PARENT 4 2 11 16 11 17
ROOT
ATOM      1  N   UNL     1      99.277 126.825  89.486  1.00  0.00    -0.314 NA
ATOM      2  H   UNL     1      98.599 126.842  90.247  1.00  0.00     0.122 HD
ENDROOT
BRANCH   1   3
ATOM      3  C   UNL     1      98.614 127.115  88.215  1.00  0.00     0.081 C 
BRANCH   3   4
ATOM      4  C   UNL     1      98.619 128.617  87.912  1.00  0.00     0.012 C 
ATOM      5  C   UNL     1      99.620 129.021  86.839  1.00  0.00     0.005 C 
ENDBRANCH   3   4
ENDBRANCH   1   3
BRANCH   1   6
ATOM      6  C   UNL     1     100.000 125.543  89.483  1.00  0.00     0.059 C 
ATOM      7  C   UNL     1     100.696 125.395  88.104  1.00  0.00     0.026 C 
ATOM      8  C   UNL     1     101.031 125.418  90.642  1.00  0.00     0.067 C 
ATOM      9  C   UNL     1     101.376 124.023  87.948  1.00  0.00     0.059 C 
ATOM     10  C   UNL     1     101.967 124.287  90.384  1.00  0.00     0.031 A 
ATOM     11  C   UNL     1     102.148 123.664  89.168  1.00  0.00     0.057 A 
ATOM     12  S   UNL     1     102.999 123.607  91.551  1.00  0.00    -0.102 S 
ATOM     13  N   UNL     1     103.082 122.650  89.160  1.00  0.00    -0.225 NA
ATOM     14  C   UNL     1     103.612 122.531  90.354  1.00  0.00     0.180 A 
BRANCH  14  15
ATOM     15  N   UNL     1     104.556 121.621  90.649  1.00  0.00    -0.375 N 
ATOM     16  H   UNL     1     104.446 121.185  91.557  1.00  0.00     0.159 HD
ATOM     17  H   UNL     1     105.513 121.869  90.431  1.00  0.00     0.159 HD
ENDBRANCH  14  15
ENDBRANCH   1   6
TORSDOF 4
ENDMDL
MODEL 6
REMARK VINA RESULT:    -4.702     11.101     11.919
REMARK INTER + INTRA:          -5.883
REMARK INTER:                  -5.635
REMARK INTRA:                  -0.249
REMARK UNBOUND:                -0.219
REMARK SMILES CCCN[C@H]1CCc2nc(N)sc2C1
REMARK SMILES IDX 4 1 3 3 2 4 1 5 5 6 6 7 14 8 7 9 13 10 8 11 12 12 9 13 10 14
REMARK SMILES IDX 11 15
REMARK H PARENT 4 2 11 16 11 17
ROOT
ATOM      1  N   UNL     1     107.789 134.181  89.257  1.00  0.00    -0.314 NA
ATOM      2  H   UNL     1     106.820 134.240  89.571  1.00  0.00     0.122 HD
ENDROOT
BRANCH   1   3
ATOM      3  C   UNL     1     108.461 135.465  89.454  1.00  0.00     0.081 C 
BRANCH   3   4
ATOM      4  C   UNL     1     109.423 135.415  90.645  1.00  0.00     0.012 C 
ATOM      5  C   UNL     1     110.796 134.854  90.299  1.00  0.00     0.005 C 
ENDBRANCH   3   4
ENDBRANCH   1   3
BRANCH   1   6
ATOM      6  C   UNL     1     107.838 133.709  87.863  1.00  0.00     0.059 C 
ATOM      7  C   UNL     1     109.157 132.914  87.679  1.00  0.00     0.026 C 
ATOM      8  C   UNL     1     106.607 132.844  87.466  1.00  0.00     0.067 C 
ATOM      9  C   UNL     1     109.370 132.484  86.216  1.00  0.00     0.059 C 
ATOM     10  C   UNL     1     106.877 132.109  86.198  1.00  0.00     0.031 A 
ATOM     11  C   UNL     1     108.121 131.921  85.635  1.00  0.00     0.057 A 
ATOM     12  S   UNL     1     105.686 131.345  85.256  1.00  0.00    -0.102 S 
ATOM     13  N   UNL     1     108.133 131.193  84.465  1.00  0.00    -0.225 NA
ATOM     14  C   UNL     1     106.911 130.819  84.166  1.00  0.00     0.180 A 
BRANCH  14  15
ATOM     15  N   UNL     1     106.614 130.094  83.075  1.00  0.00    -0.375 N 
ATOM     16  H   UNL     1     106.681 130.605  82.202  1.00  0.00     0.159 HD
ATOM     17  H   UNL     1     105.798 129.496  83.133  1.00  0.00     0.159 HD
ENDBRANCH  14  15
ENDBRANCH   1   6
TORSDOF 4
ENDMDL
MODEL 7
REMARK VINA RESULT:    -4.679     12.477     13.234
REMARK INTER + INTRA:          -5.856
REMARK INTER:                  -5.550
REMARK INTRA:                  -0.306
REMARK UNBOUND:                -0.219
REMARK SMILES CCCN[C@H]1CCc2nc(N)sc2C1
REMARK SMILES IDX 4 1 3 3 2 4 1 5 5 6 6 7 14 8 7 9 13 10 8 11 12 12 9 13 10 14
REMARK SMILES IDX 11 15
REMARK H PARENT 4 2 11 16 11 17
ROOT
ATOM      1  N   UNL     1     110.272 134.376  88.609  1.00  0.00    -0.314 NA
ATOM      2  H   UNL     1     110.018 133.826  89.429  1.00  0.00     0.122 HD
ENDROOT
BRANCH   1   3
ATOM      3  C   UNL     1     109.570 135.659  88.627  1.00  0.00     0.081 C 
BRANCH   3   4
ATOM      4  C   UNL     1     108.889 135.905  89.977  1.00  0.00     0.012 C 
ATOM      5  C   UNL     1     109.494 135.104  91.122  1.00  0.00     0.005 C 
ENDBRANCH   3   4
ENDBRANCH   1   3
BRANCH   1   6
ATOM      6  C   UNL     1     110.023 133.597  87.384  1.00  0.00     0.059 C 
ATOM      7  C   UNL     1     108.846 132.628  87.670  1.00  0.00     0.026 C 
ATOM      8  C   UNL     1     109.721 134.487  86.144  1.00  0.00     0.067 C 
ATOM      9  C   UNL     1     108.589 131.672  86.491  1.00  0.00     0.059 C 
ATOM     10  C   UNL     1     109.132 133.666  85.048  1.00  0.00     0.031 A 
ATOM     11  C   UNL     1     108.599 132.404  85.195  1.00  0.00     0.057 A 
ATOM     12  S   UNL     1     108.989 134.177  83.433  1.00  0.00    -0.102 S 
ATOM     13  N   UNL     1     108.094 131.840  84.043  1.00  0.00    -0.225 NA
ATOM     14  C   UNL     1     108.228 132.682  83.046  1.00  0.00     0.180 A 
BRANCH  14  15
ATOM     15  N   UNL     1     107.824 132.405  81.795  1.00  0.00    -0.375 N 
ATOM     16  H   UNL     1     108.292 131.612  81.371  1.00  0.00     0.159 HD
ATOM     17  H   UNL     1     107.709 133.192  81.167  1.00  0.00     0.159 HD
ENDBRANCH  14  15
ENDBRANCH   1   6
TORSDOF 4
ENDMDL
MODEL 8
REMARK VINA RESULT:    -4.540     11.153     11.874
REMARK INTER + INTRA:          -5.688
REMARK INTER:                  -5.430
REMARK INTRA:                  -0.258
REMARK UNBOUND:                -0.219
REMARK SMILES CCCN[C@H]1CCc2nc(N)sc2C1
REMARK SMILES IDX 4 1 3 3 2 4 1 5 5 6 6 7 14 8 7 9 13 10 8 11 12 12 9 13 10 14
REMARK SMILES IDX 11 15
REMARK H PARENT 4 2 11 16 11 17
ROOT
ATOM      1  N   UNL     1     110.600 133.969  87.755  1.00  0.00    -0.314 NA
ATOM      2  H   UNL     1     111.355 133.428  88.175  1.00  0.00     0.122 HD
ENDROOT
BRANCH   1   3
ATOM      3  C   UNL     1     110.328 135.160  88.559  1.00  0.00     0.081 C 
BRANCH   3   4
ATOM      4  C   UNL     1     110.605 134.907  90.045  1.00  0.00     0.012 C 
ATOM      5  C   UNL     1     109.409 135.185  90.945  1.00  0.00     0.005 C 
ENDBRANCH   3   4
ENDBRANCH   1   3
BRANCH   1   6
ATOM      6  C   UNL     1     109.415 133.117  87.563  1.00  0.00     0.059 C 
ATOM      7  C   UNL     1     108.160 134.025  87.647  1.00  0.00     0.026 C 
ATOM      8  C   UNL     1     109.441 132.326  86.223  1.00  0.00     0.067 C 
ATOM      9  C   UNL     1     106.856 133.210  87.588  1.00  0.00     0.059 C 
ATOM     10  C   UNL     1     108.088 131.779  85.918  1.00  0.00     0.031 A 
ATOM     11  C   UNL     1     106.912 132.184  86.511  1.00  0.00     0.057 A 
ATOM     12  S   UNL     1     107.775 130.583  84.752  1.00  0.00    -0.102 S 
ATOM     13  N   UNL     1     105.776 131.548  86.059  1.00  0.00    -0.225 NA
ATOM     14  C   UNL     1     106.096 130.690  85.120  1.00  0.00     0.180 A 
BRANCH  14  15
ATOM     15  N   UNL     1     105.191 129.922  84.491  1.00  0.00    -0.375 N 
ATOM     16  H   UNL     1     105.163 128.961  84.812  1.00  0.00     0.159 HD
ATOM     17  H   UNL     1     105.134 130.015  83.484  1.00  0.00     0.159 HD
ENDBRANCH  14  15
ENDBRANCH   1   6
TORSDOF 4
ENDMDL
MODEL 9
REMARK VINA RESULT:    -4.534      3.780      5.379
REMARK INTER + INTRA:          -5.681
REMARK INTER:                  -5.315
REMARK INTRA:                  -0.366
REMARK UNBOUND:                -0.219
REMARK SMILES CCCN[C@H]1CCc2nc(N)sc2C1
REMARK SMILES IDX 4 1 3 3 2 4 1 5 5 6 6 7 14 8 7 9 13 10 8 11 12 12 9 13 10 14
REMARK SMILES IDX 11 15
REMARK H PARENT 4 2 11 16 11 17
ROOT
ATOM      1  N   UNL     1     100.126 123.885  89.978  1.00  0.00    -0.314 NA
ATOM      2  H   UNL     1      99.514 123.199  90.417  1.00  0.00     0.122 HD
ENDROOT
BRANCH   1   3
ATOM      3  C   UNL     1      99.562 125.227  90.120  1.00  0.00     0.081 C 
BRANCH   3   4
ATOM      4  C   UNL     1     100.359 126.066  91.124  1.00  0.00     0.012 C 
ATOM      5  C   UNL     1     101.777 125.560  91.354  1.00  0.00     0.005 C 
ENDBRANCH   3   4
ENDBRANCH   1   3
BRANCH   1   6
ATOM      6  C   UNL     1     100.381 123.509  88.578  1.00  0.00     0.059 C 
ATOM      7  C   UNL     1      99.619 124.512  87.672  1.00  0.00     0.026 C 
ATOM      8  C   UNL     1     101.895 123.477  88.219  1.00  0.00     0.067 C 
ATOM      9  C   UNL     1      99.714 124.130  86.184  1.00  0.00     0.059 C 
ATOM     10  C   UNL     1     102.077 123.450  86.739  1.00  0.00     0.031 A 
ATOM     11  C   UNL     1     101.107 123.764  85.811  1.00  0.00     0.057 A 
ATOM     12  S   UNL     1     103.535 123.064  85.956  1.00  0.00    -0.102 S 
ATOM     13  N   UNL     1     101.507 123.687  84.494  1.00  0.00    -0.225 NA
ATOM     14  C   UNL     1     102.771 123.341  84.437  1.00  0.00     0.180 A 
BRANCH  14  15
ATOM     15  N   UNL     1     103.436 123.186  83.281  1.00  0.00    -0.375 N 
ATOM     16  H   UNL     1     104.435 123.343  83.349  1.00  0.00     0.159 HD
ATOM     17  H   UNL     1     103.017 123.595  82.454  1.00  0.00     0.159 HD
ENDBRANCH  14  15
ENDBRANCH   1   6
TORSDOF 4
ENDMDL
