REMARK SMILES CCCN(CCC)CCc1cccc2c1CC(=O)N2
REMARK SMILES IDX 4 1 3 2 2 3 1 4 5 5 6 6 7 7 8 8 9 9 10 10 15 11 11 12 16 13
REMARK SMILES IDX 14 14 12 15 17 16 19 17 13 18 18 19
REMARK H PARENT 19 20
ROOT
ATOM      1  N   UNL     1      -1.398  -0.505  -0.687  1.00  0.00    -0.303 NA
ENDROOT
BRANCH   1   2
ATOM      2  C   UNL     1      -2.125  -1.724  -1.091  1.00  0.00     0.084 C 
BRANCH   2   3
ATOM      3  C   UNL     1      -2.419  -2.646   0.100  1.00  0.00     0.012 C 
ATOM      4  C   UNL     1      -3.329  -2.050   1.161  1.00  0.00     0.005 C 
ENDBRANCH   2   3
ENDBRANCH   1   2
BRANCH   1   5
ATOM      5  C   UNL     1      -2.305   0.655  -0.614  1.00  0.00     0.084 C 
BRANCH   5   6
ATOM      6  C   UNL     1      -1.758   1.735   0.330  1.00  0.00     0.012 C 
ATOM      7  C   UNL     1      -2.728   2.901   0.453  1.00  0.00     0.005 C 
ENDBRANCH   5   6
ENDBRANCH   1   5
BRANCH   1   8
ATOM      8  C   UNL     1      -0.264  -0.232  -1.598  1.00  0.00     0.089 C 
BRANCH   8   9
ATOM      9  C   UNL     1       0.974  -1.096  -1.285  1.00  0.00     0.051 C 
BRANCH   9  10
ATOM     10  C   UNL     1       1.740  -0.616  -0.078  1.00  0.00    -0.041 A 
ATOM     11  C   UNL     1       2.820   0.252  -0.180  1.00  0.00    -0.012 A 
ATOM     12  C   UNL     1       1.361  -1.010   1.217  1.00  0.00     0.004 A 
ATOM     13  C   UNL     1       3.459   0.868  -1.392  1.00  0.00     0.138 C 
ATOM     14  C   UNL     1       3.494   0.694   0.960  1.00  0.00     0.045 A 
ATOM     15  C   UNL     1       2.052  -0.556   2.357  1.00  0.00     0.002 A 
ATOM     16  C   UNL     1       4.579   1.715  -0.779  1.00  0.00     0.228 C 
ATOM     17  N   UNL     1       4.523   1.549   0.598  1.00  0.00    -0.326 N 
ATOM     18  C   UNL     1       3.138   0.310   2.234  1.00  0.00     0.026 A 
ATOM     19  O   UNL     1       5.378   2.411  -1.382  1.00  0.00    -0.274 OA
ATOM     20  H   UNL     1       5.159   2.008   1.232  1.00  0.00     0.169 HD
ENDBRANCH   9  10
ENDBRANCH   8   9
ENDBRANCH   1   8
TORSDOF 7
