MODEL 1
REMARK VINA RESULT:    -5.961      0.000      0.000
REMARK INTER + INTRA:          -9.198
REMARK INTER:                  -8.400
REMARK INTRA:                  -0.798
REMARK UNBOUND:                -0.798
REMARK SMILES CCCN(CCC)CCc1cccc2c1CC(=O)N2
REMARK SMILES IDX 4 1 3 2 2 3 1 4 5 5 6 6 7 7 8 8 9 9 10 10 15 11 11 12 16 13
REMARK SMILES IDX 14 14 12 15 17 16 19 17 13 18 18 19
REMARK H PARENT 19 20
ROOT
ATOM      1  N   UNL     1     102.094 123.853  86.902  1.00  0.00    -0.303 NA
ENDROOT
BRANCH   1   2
ATOM      2  C   UNL     1     101.762 124.884  85.900  1.00  0.00     0.084 C 
BRANCH   2   3
ATOM      3  C   UNL     1     101.841 126.303  86.479  1.00  0.00     0.012 C 
ATOM      4  C   UNL     1     100.501 126.919  86.845  1.00  0.00     0.005 C 
ENDBRANCH   2   3
ENDBRANCH   1   2
BRANCH   1   5
ATOM      5  C   UNL     1     103.212 123.007  86.444  1.00  0.00     0.084 C 
BRANCH   5   6
ATOM      6  C   UNL     1     103.680 123.410  85.039  1.00  0.00     0.012 C 
ATOM      7  C   UNL     1     103.630 122.229  84.082  1.00  0.00     0.005 C 
ENDBRANCH   5   6
ENDBRANCH   1   5
BRANCH   1   8
ATOM      8  C   UNL     1     100.910 123.030  87.235  1.00  0.00     0.089 C 
BRANCH   8   9
ATOM      9  C   UNL     1     100.100 123.599  88.417  1.00  0.00     0.051 C 
BRANCH   9  10
ATOM     10  C   UNL     1     100.958 123.952  89.606  1.00  0.00    -0.041 A 
ATOM     11  C   UNL     1     100.691 125.048  90.416  1.00  0.00    -0.012 A 
ATOM     12  C   UNL     1     102.058 123.151  89.961  1.00  0.00     0.004 A 
ATOM     13  C   UNL     1      99.601 126.078  90.327  1.00  0.00     0.138 C 
ATOM     14  C   UNL     1     101.493 125.334  91.522  1.00  0.00     0.045 A 
ATOM     15  C   UNL     1     102.858 123.454  91.080  1.00  0.00     0.002 A 
ATOM     16  C   UNL     1      99.899 126.977  91.531  1.00  0.00     0.228 C 
ATOM     17  N   UNL     1     101.022 126.466  92.167  1.00  0.00    -0.326 N 
ATOM     18  C   UNL     1     102.578 124.563  91.878  1.00  0.00     0.026 A 
ATOM     19  O   UNL     1      99.270 127.963  91.876  1.00  0.00    -0.274 OA
ATOM     20  H   UNL     1     101.420 126.883  92.995  1.00  0.00     0.169 HD
ENDBRANCH   9  10
ENDBRANCH   8   9
ENDBRANCH   1   8
TORSDOF 7
ENDMDL
MODEL 2
REMARK VINA RESULT:    -5.931      0.853      2.393
REMARK INTER + INTRA:          -9.156
REMARK INTER:                  -8.104
REMARK INTRA:                  -1.052
REMARK UNBOUND:                -0.798
REMARK SMILES CCCN(CCC)CCc1cccc2c1CC(=O)N2
REMARK SMILES IDX 4 1 3 2 2 3 1 4 5 5 6 6 7 7 8 8 9 9 10 10 15 11 11 12 16 13
REMARK SMILES IDX 14 14 12 15 17 16 19 17 13 18 18 19
REMARK H PARENT 19 20
ROOT
ATOM      1  N   UNL     1     101.068 124.069  85.998  1.00  0.00    -0.303 NA
ENDROOT
BRANCH   1   2
ATOM      2  C   UNL     1     101.073 123.433  84.666  1.00  0.00     0.084 C 
BRANCH   2   3
ATOM      3  C   UNL     1     102.077 124.093  83.712  1.00  0.00     0.012 C 
ATOM      4  C   UNL     1     103.135 123.159  83.149  1.00  0.00     0.005 C 
ENDBRANCH   2   3
ENDBRANCH   1   2
BRANCH   1   5
ATOM      5  C   UNL     1     102.236 124.951  86.170  1.00  0.00     0.084 C 
BRANCH   5   6
ATOM      6  C   UNL     1     101.836 126.294  86.795  1.00  0.00     0.012 C 
ATOM      7  C   UNL     1     100.432 126.701  86.374  1.00  0.00     0.005 C 
ENDBRANCH   5   6
ENDBRANCH   1   5
BRANCH   1   8
ATOM      8  C   UNL     1     101.008 123.054  87.074  1.00  0.00     0.089 C 
BRANCH   8   9
ATOM      9  C   UNL     1     100.156 123.509  88.276  1.00  0.00     0.051 C 
BRANCH   9  10
ATOM     10  C   UNL     1     100.985 123.898  89.474  1.00  0.00    -0.041 A 
ATOM     11  C   UNL     1     100.672 124.992  90.270  1.00  0.00    -0.012 A 
ATOM     12  C   UNL     1     102.102 123.133  89.854  1.00  0.00     0.004 A 
ATOM     13  C   UNL     1      99.554 125.988  90.155  1.00  0.00     0.138 C 
ATOM     14  C   UNL     1     101.448 125.312  91.386  1.00  0.00     0.045 A 
ATOM     15  C   UNL     1     102.875 123.470  90.982  1.00  0.00     0.002 A 
ATOM     16  C   UNL     1      99.806 126.907  91.356  1.00  0.00     0.228 C 
ATOM     17  N   UNL     1     100.933 126.435  92.013  1.00  0.00    -0.326 N 
ATOM     18  C   UNL     1     102.550 124.576  91.765  1.00  0.00     0.026 A 
ATOM     19  O   UNL     1      99.142 127.876  91.682  1.00  0.00    -0.274 OA
ATOM     20  H   UNL     1     101.306 126.870  92.843  1.00  0.00     0.169 HD
ENDBRANCH   9  10
ENDBRANCH   8   9
ENDBRANCH   1   8
TORSDOF 7
ENDMDL
MODEL 3
REMARK VINA RESULT:    -5.800      1.389      2.243
REMARK INTER + INTRA:          -8.972
REMARK INTER:                  -7.846
REMARK INTRA:                  -1.126
REMARK UNBOUND:                -0.798
REMARK SMILES CCCN(CCC)CCc1cccc2c1CC(=O)N2
REMARK SMILES IDX 4 1 3 2 2 3 1 4 5 5 6 6 7 7 8 8 9 9 10 10 15 11 11 12 16 13
REMARK SMILES IDX 14 14 12 15 17 16 19 17 13 18 18 19
REMARK H PARENT 19 20
ROOT
ATOM      1  N   UNL     1     100.419 124.495  85.342  1.00  0.00    -0.303 NA
ENDROOT
BRANCH   1   2
ATOM      2  C   UNL     1      99.447 123.390  85.450  1.00  0.00     0.084 C 
BRANCH   2   3
ATOM      3  C   UNL     1      99.915 122.130  84.708  1.00  0.00     0.012 C 
ATOM      4  C   UNL     1      99.939 120.865  85.549  1.00  0.00     0.005 C 
ENDBRANCH   2   3
ENDBRANCH   1   2
BRANCH   1   5
ATOM      5  C   UNL     1     101.668 124.043  84.703  1.00  0.00     0.084 C 
BRANCH   5   6
ATOM      6  C   UNL     1     102.874 124.236  85.632  1.00  0.00     0.012 C 
ATOM      7  C   UNL     1     103.618 122.925  85.847  1.00  0.00     0.005 C 
ENDBRANCH   5   6
ENDBRANCH   1   5
BRANCH   1   8
ATOM      8  C   UNL     1     100.691 125.098  86.666  1.00  0.00     0.089 C 
BRANCH   8   9
ATOM      9  C   UNL     1     100.077 124.292  87.827  1.00  0.00     0.051 C 
BRANCH   9  10
ATOM     10  C   UNL     1     100.876 124.388  89.102  1.00  0.00    -0.041 A 
ATOM     11  C   UNL     1     100.600 125.332  90.083  1.00  0.00    -0.012 A 
ATOM     12  C   UNL     1     101.925 123.489  89.362  1.00  0.00     0.004 A 
ATOM     13  C   UNL     1      99.553 126.409  90.126  1.00  0.00     0.138 C 
ATOM     14  C   UNL     1     101.347 125.380  91.262  1.00  0.00     0.045 A 
ATOM     15  C   UNL     1     102.669 123.551  90.556  1.00  0.00     0.002 A 
ATOM     16  C   UNL     1      99.812 127.065  91.487  1.00  0.00     0.228 C 
ATOM     17  N   UNL     1     100.878 126.399  92.076  1.00  0.00    -0.326 N 
ATOM     18  C   UNL     1     102.381 124.511  91.526  1.00  0.00     0.026 A 
ATOM     19  O   UNL     1      99.198 128.000  91.972  1.00  0.00    -0.274 OA
ATOM     20  H   UNL     1     101.242 126.643  92.984  1.00  0.00     0.169 HD
ENDBRANCH   9  10
ENDBRANCH   8   9
ENDBRANCH   1   8
TORSDOF 7
ENDMDL
MODEL 4
REMARK VINA RESULT:    -5.759      1.581      2.427
REMARK INTER + INTRA:          -8.914
REMARK INTER:                  -8.052
REMARK INTRA:                  -0.862
REMARK UNBOUND:                -0.798
REMARK SMILES CCCN(CCC)CCc1cccc2c1CC(=O)N2
REMARK SMILES IDX 4 1 3 2 2 3 1 4 5 5 6 6 7 7 8 8 9 9 10 10 15 11 11 12 16 13
REMARK SMILES IDX 14 14 12 15 17 16 19 17 13 18 18 19
REMARK H PARENT 19 20
ROOT
ATOM      1  N   UNL     1     100.691 122.585  86.116  1.00  0.00    -0.303 NA
ENDROOT
BRANCH   1   2
ATOM      2  C   UNL     1     101.115 123.931  85.685  1.00  0.00     0.084 C 
BRANCH   2   3
ATOM      3  C   UNL     1     102.631 124.022  85.471  1.00  0.00     0.012 C 
ATOM      4  C   UNL     1     103.433 122.888  86.087  1.00  0.00     0.005 C 
ENDBRANCH   2   3
ENDBRANCH   1   2
BRANCH   1   5
ATOM      5  C   UNL     1      99.796 121.966  85.121  1.00  0.00     0.084 C 
BRANCH   5   6
ATOM      6  C   UNL     1      98.955 120.844  85.746  1.00  0.00     0.012 C 
ATOM      7  C   UNL     1      99.225 119.510  85.064  1.00  0.00     0.005 C 
ENDBRANCH   5   6
ENDBRANCH   1   5
BRANCH   1   8
ATOM      8  C   UNL     1     100.050 122.627  87.449  1.00  0.00     0.089 C 
BRANCH   8   9
ATOM      9  C   UNL     1      99.964 124.054  88.025  1.00  0.00     0.051 C 
BRANCH   9  10
ATOM     10  C   UNL     1     100.817 124.248  89.254  1.00  0.00    -0.041 A 
ATOM     11  C   UNL     1     100.562 125.247  90.185  1.00  0.00    -0.012 A 
ATOM     12  C   UNL     1     101.897 123.389  89.521  1.00  0.00     0.004 A 
ATOM     13  C   UNL     1      99.493 126.302  90.209  1.00  0.00     0.138 C 
ATOM     14  C   UNL     1     101.359 125.385  91.323  1.00  0.00     0.045 A 
ATOM     15  C   UNL     1     102.692 123.543  90.674  1.00  0.00     0.002 A 
ATOM     16  C   UNL     1      99.796 127.048  91.513  1.00  0.00     0.228 C 
ATOM     17  N   UNL     1     100.902 126.443  92.093  1.00  0.00    -0.326 N 
ATOM     18  C   UNL     1     102.425 124.556  91.594  1.00  0.00     0.026 A 
ATOM     19  O   UNL     1      99.183 127.999  91.966  1.00  0.00    -0.274 OA
ATOM     20  H   UNL     1     101.300 126.752  92.967  1.00  0.00     0.169 HD
ENDBRANCH   9  10
ENDBRANCH   8   9
ENDBRANCH   1   8
TORSDOF 7
ENDMDL
MODEL 5
REMARK VINA RESULT:    -5.690      2.514      5.179
REMARK INTER + INTRA:          -8.817
REMARK INTER:                  -7.919
REMARK INTRA:                  -0.897
REMARK UNBOUND:                -0.798
REMARK SMILES CCCN(CCC)CCc1cccc2c1CC(=O)N2
REMARK SMILES IDX 4 1 3 2 2 3 1 4 5 5 6 6 7 7 8 8 9 9 10 10 15 11 11 12 16 13
REMARK SMILES IDX 14 14 12 15 17 16 19 17 13 18 18 19
REMARK H PARENT 19 20
ROOT
ATOM      1  N   UNL     1     100.899 124.423  90.176  1.00  0.00    -0.303 NA
ENDROOT
BRANCH   1   2
ATOM      2  C   UNL     1      99.765 125.211  90.697  1.00  0.00     0.084 C 
BRANCH   2   3
ATOM      3  C   UNL     1     100.229 126.452  91.473  1.00  0.00     0.012 C 
ATOM      4  C   UNL     1      99.179 127.539  91.627  1.00  0.00     0.005 C 
ENDBRANCH   2   3
ENDBRANCH   1   2
BRANCH   1   5
ATOM      5  C   UNL     1     102.185 124.953  90.666  1.00  0.00     0.084 C 
BRANCH   5   6
ATOM      6  C   UNL     1     102.887 123.950  91.592  1.00  0.00     0.012 C 
ATOM      7  C   UNL     1     102.654 122.519  91.131  1.00  0.00     0.005 C 
ENDBRANCH   5   6
ENDBRANCH   1   5
BRANCH   1   8
ATOM      8  C   UNL     1     100.879 124.372  88.697  1.00  0.00     0.089 C 
BRANCH   8   9
ATOM      9  C   UNL     1      99.706 125.165  88.088  1.00  0.00     0.051 C 
BRANCH   9  10
ATOM     10  C   UNL     1     100.152 126.385  87.321  1.00  0.00    -0.041 A 
ATOM     11  C   UNL     1      99.435 127.575  87.334  1.00  0.00    -0.012 A 
ATOM     12  C   UNL     1     101.348 126.372  86.582  1.00  0.00     0.004 A 
ATOM     13  C   UNL     1      98.149 127.925  88.028  1.00  0.00     0.138 C 
ATOM     14  C   UNL     1      99.887 128.692  86.631  1.00  0.00     0.045 A 
ATOM     15  C   UNL     1     101.790 127.508  85.877  1.00  0.00     0.002 A 
ATOM     16  C   UNL     1      97.942 129.387  87.620  1.00  0.00     0.228 C 
ATOM     17  N   UNL     1      99.006 129.748  86.804  1.00  0.00    -0.326 N 
ATOM     18  C   UNL     1     101.053 128.691  85.896  1.00  0.00     0.026 A 
ATOM     19  O   UNL     1      97.017 130.110  87.948  1.00  0.00    -0.274 OA
ATOM     20  H   UNL     1      99.103 130.669  86.404  1.00  0.00     0.169 HD
ENDBRANCH   9  10
ENDBRANCH   8   9
ENDBRANCH   1   8
TORSDOF 7
ENDMDL
MODEL 6
REMARK VINA RESULT:    -5.620      2.373      3.517
REMARK INTER + INTRA:          -8.718
REMARK INTER:                  -7.772
REMARK INTRA:                  -0.945
REMARK UNBOUND:                -0.798
REMARK SMILES CCCN(CCC)CCc1cccc2c1CC(=O)N2
REMARK SMILES IDX 4 1 3 2 2 3 1 4 5 5 6 6 7 7 8 8 9 9 10 10 15 11 11 12 16 13
REMARK SMILES IDX 14 14 12 15 17 16 19 17 13 18 18 19
REMARK H PARENT 19 20
ROOT
ATOM      1  N   UNL     1     100.174 126.418  87.385  1.00  0.00    -0.303 NA
ENDROOT
BRANCH   1   2
ATOM      2  C   UNL     1      99.455 127.452  86.616  1.00  0.00     0.084 C 
BRANCH   2   3
ATOM      3  C   UNL     1      98.106 127.815  87.251  1.00  0.00     0.012 C 
ATOM      4  C   UNL     1      98.188 128.793  88.411  1.00  0.00     0.005 C 
ENDBRANCH   2   3
ENDBRANCH   1   2
BRANCH   1   5
ATOM      5  C   UNL     1     101.582 126.320  86.958  1.00  0.00     0.084 C 
BRANCH   5   6
ATOM      6  C   UNL     1     101.727 125.446  85.704  1.00  0.00     0.012 C 
ATOM      7  C   UNL     1     102.723 124.319  85.931  1.00  0.00     0.005 C 
ENDBRANCH   5   6
ENDBRANCH   1   5
BRANCH   1   8
ATOM      8  C   UNL     1      99.498 125.106  87.279  1.00  0.00     0.089 C 
BRANCH   8   9
ATOM      9  C   UNL     1      98.991 124.584  88.638  1.00  0.00     0.051 C 
BRANCH   9  10
ATOM     10  C   UNL     1      99.826 125.057  89.801  1.00  0.00    -0.041 A 
ATOM     11  C   UNL     1     100.999 124.418  90.182  1.00  0.00    -0.012 A 
ATOM     12  C   UNL     1      99.458 126.199  90.533  1.00  0.00     0.004 A 
ATOM     13  C   UNL     1     101.672 123.203  89.609  1.00  0.00     0.138 C 
ATOM     14  C   UNL     1     101.760 124.894  91.251  1.00  0.00     0.045 A 
ATOM     15  C   UNL     1     100.236 126.667  91.609  1.00  0.00     0.002 A 
ATOM     16  C   UNL     1     102.912 123.064  90.498  1.00  0.00     0.228 C 
ATOM     17  N   UNL     1     102.878 124.094  91.429  1.00  0.00    -0.326 N 
ATOM     18  C   UNL     1     101.408 126.008  91.981  1.00  0.00     0.026 A 
ATOM     19  O   UNL     1     103.777 122.209  90.412  1.00  0.00    -0.274 OA
ATOM     20  H   UNL     1     103.590 124.223  92.131  1.00  0.00     0.169 HD
ENDBRANCH   9  10
ENDBRANCH   8   9
ENDBRANCH   1   8
TORSDOF 7
ENDMDL
MODEL 7
REMARK VINA RESULT:    -5.562      2.153      3.032
REMARK INTER + INTRA:          -8.636
REMARK INTER:                  -7.047
REMARK INTRA:                  -1.589
REMARK UNBOUND:                -0.798
REMARK SMILES CCCN(CCC)CCc1cccc2c1CC(=O)N2
REMARK SMILES IDX 4 1 3 2 2 3 1 4 5 5 6 6 7 7 8 8 9 9 10 10 15 11 11 12 16 13
REMARK SMILES IDX 14 14 12 15 17 16 19 17 13 18 18 19
REMARK H PARENT 19 20
ROOT
ATOM      1  N   UNL     1     100.720 123.951  86.018  1.00  0.00    -0.303 NA
ENDROOT
BRANCH   1   2
ATOM      2  C   UNL     1     100.461 125.206  85.286  1.00  0.00     0.084 C 
BRANCH   2   3
ATOM      3  C   UNL     1     100.561 126.439  86.194  1.00  0.00     0.012 C 
ATOM      4  C   UNL     1     101.832 126.522  87.023  1.00  0.00     0.005 C 
ENDBRANCH   2   3
ENDBRANCH   1   2
BRANCH   1   5
ATOM      5  C   UNL     1     101.073 122.859  85.093  1.00  0.00     0.084 C 
BRANCH   5   6
ATOM      6  C   UNL     1     102.595 122.721  84.945  1.00  0.00     0.012 C 
ATOM      7  C   UNL     1     103.297 122.909  86.283  1.00  0.00     0.005 C 
ENDBRANCH   5   6
ENDBRANCH   1   5
BRANCH   1   8
ATOM      8  C   UNL     1      99.562 123.575  86.860  1.00  0.00     0.089 C 
BRANCH   8   9
ATOM      9  C   UNL     1      99.978 122.866  88.164  1.00  0.00     0.051 C 
BRANCH   9  10
ATOM     10  C   UNL     1     100.352 123.825  89.266  1.00  0.00    -0.041 A 
ATOM     11  C   UNL     1     101.502 123.668  90.029  1.00  0.00    -0.012 A 
ATOM     12  C   UNL     1      99.555 124.950  89.541  1.00  0.00     0.004 A 
ATOM     13  C   UNL     1     102.562 122.605  89.981  1.00  0.00     0.138 C 
ATOM     14  C   UNL     1     101.830 124.588  91.028  1.00  0.00     0.045 A 
ATOM     15  C   UNL     1      99.899 125.867  90.552  1.00  0.00     0.002 A 
ATOM     16  C   UNL     1     103.528 123.052  91.083  1.00  0.00     0.228 C 
ATOM     17  N   UNL     1     103.017 124.217  91.639  1.00  0.00    -0.326 N 
ATOM     18  C   UNL     1     101.054 125.689  91.313  1.00  0.00     0.026 A 
ATOM     19  O   UNL     1     104.558 122.493  91.418  1.00  0.00    -0.274 OA
ATOM     20  H   UNL     1     103.474 124.713  92.389  1.00  0.00     0.169 HD
ENDBRANCH   9  10
ENDBRANCH   8   9
ENDBRANCH   1   8
TORSDOF 7
ENDMDL
MODEL 8
REMARK VINA RESULT:    -5.555     10.253     12.066
REMARK INTER + INTRA:          -8.626
REMARK INTER:                  -7.088
REMARK INTRA:                  -1.538
REMARK UNBOUND:                -0.798
REMARK SMILES CCCN(CCC)CCc1cccc2c1CC(=O)N2
REMARK SMILES IDX 4 1 3 2 2 3 1 4 5 5 6 6 7 7 8 8 9 9 10 10 15 11 11 12 16 13
REMARK SMILES IDX 14 14 12 15 17 16 19 17 13 18 18 19
REMARK H PARENT 19 20
ROOT
ATOM      1  N   UNL     1     111.015 134.285  87.450  1.00  0.00    -0.303 NA
ENDROOT
BRANCH   1   2
ATOM      2  C   UNL     1     110.849 134.194  88.913  1.00  0.00     0.084 C 
BRANCH   2   3
ATOM      3  C   UNL     1     110.121 135.415  89.492  1.00  0.00     0.012 C 
ATOM      4  C   UNL     1     109.412 135.170  90.814  1.00  0.00     0.005 C 
ENDBRANCH   2   3
ENDBRANCH   1   2
BRANCH   1   5
ATOM      5  C   UNL     1     110.354 135.489  86.914  1.00  0.00     0.084 C 
BRANCH   5   6
ATOM      6  C   UNL     1     109.626 135.189  85.596  1.00  0.00     0.012 C 
ATOM      7  C   UNL     1     108.197 135.709  85.626  1.00  0.00     0.005 C 
ENDBRANCH   5   6
ENDBRANCH   1   5
BRANCH   1   8
ATOM      8  C   UNL     1     110.515 133.065  86.778  1.00  0.00     0.089 C 
BRANCH   8   9
ATOM      9  C   UNL     1     109.617 132.206  87.691  1.00  0.00     0.051 C 
BRANCH   9  10
ATOM     10  C   UNL     1     108.145 132.422  87.444  1.00  0.00    -0.041 A 
ATOM     11  C   UNL     1     107.472 131.817  86.391  1.00  0.00    -0.012 A 
ATOM     12  C   UNL     1     107.383 133.230  88.306  1.00  0.00     0.004 A 
ATOM     13  C   UNL     1     107.977 130.896  85.317  1.00  0.00     0.138 C 
ATOM     14  C   UNL     1     106.103 132.021  86.204  1.00  0.00     0.045 A 
ATOM     15  C   UNL     1     106.003 133.426  88.103  1.00  0.00     0.002 A 
ATOM     16  C   UNL     1     106.709 130.610  84.505  1.00  0.00     0.228 C 
ATOM     17  N   UNL     1     105.667 131.311  85.096  1.00  0.00    -0.326 N 
ATOM     18  C   UNL     1     105.346 132.815  87.036  1.00  0.00     0.026 A 
ATOM     19  O   UNL     1     106.622 129.899  83.519  1.00  0.00    -0.274 OA
ATOM     20  H   UNL     1     104.721 131.285  84.747  1.00  0.00     0.169 HD
ENDBRANCH   9  10
ENDBRANCH   8   9
ENDBRANCH   1   8
TORSDOF 7
ENDMDL
MODEL 9
REMARK VINA RESULT:    -5.541      2.122      3.746
REMARK INTER + INTRA:          -8.607
REMARK INTER:                  -7.290
REMARK INTRA:                  -1.317
REMARK UNBOUND:                -0.798
REMARK SMILES CCCN(CCC)CCc1cccc2c1CC(=O)N2
REMARK SMILES IDX 4 1 3 2 2 3 1 4 5 5 6 6 7 7 8 8 9 9 10 10 15 11 11 12 16 13
REMARK SMILES IDX 14 14 12 15 17 16 19 17 13 18 18 19
REMARK H PARENT 19 20
ROOT
ATOM      1  N   UNL     1     100.715 123.594  85.560  1.00  0.00    -0.303 NA
ENDROOT
BRANCH   1   2
ATOM      2  C   UNL     1     101.767 122.641  85.964  1.00  0.00     0.084 C 
BRANCH   2   3
ATOM      3  C   UNL     1     103.177 123.199  85.724  1.00  0.00     0.012 C 
ATOM      4  C   UNL     1     104.058 122.346  84.827  1.00  0.00     0.005 C 
ENDBRANCH   2   3
ENDBRANCH   1   2
BRANCH   1   5
ATOM      5  C   UNL     1     101.298 124.869  85.104  1.00  0.00     0.084 C 
BRANCH   5   6
ATOM      6  C   UNL     1     100.742 126.056  85.902  1.00  0.00     0.012 C 
ATOM      7  C   UNL     1     101.844 126.762  86.679  1.00  0.00     0.005 C 
ENDBRANCH   5   6
ENDBRANCH   1   5
BRANCH   1   8
ATOM      8  C   UNL     1      99.748 123.818  86.658  1.00  0.00     0.089 C 
BRANCH   8   9
ATOM      9  C   UNL     1     100.108 123.040  87.939  1.00  0.00     0.051 C 
BRANCH   9  10
ATOM     10  C   UNL     1     100.425 123.938  89.108  1.00  0.00    -0.041 A 
ATOM     11  C   UNL     1     101.533 123.737  89.921  1.00  0.00    -0.012 A 
ATOM     12  C   UNL     1      99.615 125.050  89.400  1.00  0.00     0.004 A 
ATOM     13  C   UNL     1     102.593 122.673  89.871  1.00  0.00     0.138 C 
ATOM     14  C   UNL     1     101.809 124.601  90.982  1.00  0.00     0.045 A 
ATOM     15  C   UNL     1      99.907 125.911  90.475  1.00  0.00     0.002 A 
ATOM     16  C   UNL     1     103.500 123.058  91.045  1.00  0.00     0.228 C 
ATOM     17  N   UNL     1     102.962 124.194  91.635  1.00  0.00    -0.326 N 
ATOM     18  C   UNL     1     101.021 125.689  91.284  1.00  0.00     0.026 A 
ATOM     19  O   UNL     1     104.511 122.479  91.403  1.00  0.00    -0.274 OA
ATOM     20  H   UNL     1     103.380 124.648  92.432  1.00  0.00     0.169 HD
ENDBRANCH   9  10
ENDBRANCH   8   9
ENDBRANCH   1   8
TORSDOF 7
ENDMDL
MODEL 10
REMARK VINA RESULT:    -5.503      3.066      6.560
REMARK INTER + INTRA:          -8.553
REMARK INTER:                  -7.739
REMARK INTRA:                  -0.815
REMARK UNBOUND:                -0.798
REMARK SMILES CCCN(CCC)CCc1cccc2c1CC(=O)N2
REMARK SMILES IDX 4 1 3 2 2 3 1 4 5 5 6 6 7 7 8 8 9 9 10 10 15 11 11 12 16 13
REMARK SMILES IDX 14 14 12 15 17 16 19 17 13 18 18 19
REMARK H PARENT 19 20
ROOT
ATOM      1  N   UNL     1     101.152 124.621  89.852  1.00  0.00    -0.303 NA
ENDROOT
BRANCH   1   2
ATOM      2  C   UNL     1     101.460 123.187  90.016  1.00  0.00     0.084 C 
BRANCH   2   3
ATOM      3  C   UNL     1     102.851 122.958  90.622  1.00  0.00     0.012 C 
ATOM      4  C   UNL     1     103.179 123.833  91.821  1.00  0.00     0.005 C 
ENDBRANCH   2   3
ENDBRANCH   1   2
BRANCH   1   5
ATOM      5  C   UNL     1      99.739 124.900  90.167  1.00  0.00     0.084 C 
BRANCH   5   6
ATOM      6  C   UNL     1      99.577 126.264  90.851  1.00  0.00     0.012 C 
ATOM      7  C   UNL     1     100.687 126.508  91.864  1.00  0.00     0.005 C 
ENDBRANCH   5   6
ENDBRANCH   1   5
BRANCH   1   8
ATOM      8  C   UNL     1     101.492 125.089  88.490  1.00  0.00     0.089 C 
BRANCH   8   9
ATOM      9  C   UNL     1     100.658 124.394  87.395  1.00  0.00     0.051 C 
BRANCH   9  10
ATOM     10  C   UNL     1     101.489 123.541  86.470  1.00  0.00    -0.041 A 
ATOM     11  C   UNL     1     101.025 122.340  85.949  1.00  0.00    -0.012 A 
ATOM     12  C   UNL     1     102.771 123.956  86.069  1.00  0.00     0.004 A 
ATOM     13  C   UNL     1      99.716 121.632  86.157  1.00  0.00     0.138 C 
ATOM     14  C   UNL     1     101.813 121.585  85.077  1.00  0.00     0.045 A 
ATOM     15  C   UNL     1     103.554 123.182  85.190  1.00  0.00     0.002 A 
ATOM     16  C   UNL     1      99.875 120.383  85.285  1.00  0.00     0.228 C 
ATOM     17  N   UNL     1     101.131 120.441  84.696  1.00  0.00    -0.326 N 
ATOM     18  C   UNL     1     103.074 121.976  84.682  1.00  0.00     0.026 A 
ATOM     19  O   UNL     1      99.055 119.494  85.130  1.00  0.00    -0.274 OA
ATOM     20  H   UNL     1     101.476 119.730  84.070  1.00  0.00     0.169 HD
ENDBRANCH   9  10
ENDBRANCH   8   9
ENDBRANCH   1   8
TORSDOF 7
ENDMDL
