MODEL 1
REMARK VINA RESULT:   -11.248      0.000      0.000
REMARK INTER + INTRA:         -15.874
REMARK INTER:                 -16.509
REMARK INTRA:                   0.635
REMARK UNBOUND:                 0.635
REMARK SMILES C[C@@H](O[C@H]1OCCN(Cc2n[nH]c(=O)[nH]2)[C@H]1c1ccc(F)cc1)c1cc(C(F)(F)F)cc(C(F)(F)F)c1
REMARK SMILES IDX 3 1 2 2 1 3 24 4 25 5 37 6 26 7 32 8 31 9 27 10 28 11 29 12
REMARK SMILES IDX 30 13 33 14 34 15 35 16 36 17 4 18 5 19 16 20 6 21 8 22 7 23
REMARK SMILES IDX 17 24 18 25 23 26 19 27 22 28 20 29 21 30 9 31 10 32 11 33
REMARK SMILES IDX 15 34 12 35 13 36 14 37
REMARK H PARENT 15 38 12 39
ROOT
ATOM      1  O   UNL     1       5.235   0.819  -8.649  1.00  0.00    -0.343 OA
ENDROOT
BRANCH   1   2
ATOM      2  C   UNL     1       6.147   0.137  -7.780  1.00  0.00     0.148 C 
ATOM      3  C   UNL     1       6.919  -0.871  -8.631  1.00  0.00     0.044 C 
BRANCH   2   4
ATOM      4  C   UNL     1       5.387  -0.545  -6.655  1.00  0.00    -0.018 A 
ATOM      5  C   UNL     1       5.823  -1.786  -6.167  1.00  0.00     0.019 A 
ATOM      6  C   UNL     1       4.261   0.052  -6.066  1.00  0.00     0.019 A 
ATOM      7  C   UNL     1       5.150  -2.432  -5.115  1.00  0.00     0.056 A 
ATOM      8  C   UNL     1       3.584  -0.560  -4.999  1.00  0.00     0.056 A 
ATOM      9  C   UNL     1       4.036  -1.804  -4.534  1.00  0.00     0.026 A 
BRANCH   7  10
ATOM     10  C   UNL     1       5.649  -3.758  -4.591  1.00  0.00     0.416 C 
ATOM     11  F   UNL     1       5.482  -4.764  -5.492  1.00  0.00    -0.166 F 
ATOM     12  F   UNL     1       6.975  -3.745  -4.281  1.00  0.00    -0.166 F 
ATOM     13  F   UNL     1       5.006  -4.158  -3.458  1.00  0.00    -0.166 F 
ENDBRANCH   7  10
BRANCH   8  14
ATOM     14  C   UNL     1       2.386   0.122  -4.381  1.00  0.00     0.416 C 
ATOM     15  F   UNL     1       1.389  -0.756  -4.077  1.00  0.00    -0.166 F 
ATOM     16  F   UNL     1       2.695   0.758  -3.218  1.00  0.00    -0.166 F 
ATOM     17  F   UNL     1       1.822   1.063  -5.187  1.00  0.00    -0.166 F 
ENDBRANCH   8  14
ENDBRANCH   2   4
ENDBRANCH   1   2
BRANCH   1  18
ATOM     18  C   UNL     1       4.536   1.892  -8.003  1.00  0.00     0.272 C 
ATOM     19  O   UNL     1       5.471   2.747  -7.319  1.00  0.00    -0.349 OA
ATOM     20  C   UNL     1       3.680   2.723  -9.037  1.00  0.00     0.144 C 
ATOM     21  C   UNL     1       5.928   3.853  -8.109  1.00  0.00     0.179 C 
ATOM     22  N   UNL     1       4.492   3.351 -10.134  1.00  0.00    -0.282 NA
ATOM     23  C   UNL     1       5.873   3.599  -9.625  1.00  0.00     0.114 C 
BRANCH  20  24
ATOM     24  C   UNL     1       2.366   2.094  -9.491  1.00  0.00    -0.025 A 
ATOM     25  C   UNL     1       2.037   1.926 -10.846  1.00  0.00     0.008 A 
ATOM     26  C   UNL     1       1.426   1.691  -8.521  1.00  0.00     0.008 A 
ATOM     27  C   UNL     1       0.822   1.349 -11.222  1.00  0.00     0.039 A 
ATOM     28  C   UNL     1       0.212   1.115  -8.898  1.00  0.00     0.039 A 
ATOM     29  C   UNL     1      -0.079   0.947 -10.245  1.00  0.00     0.123 A 
ATOM     30  F   UNL     1      -1.244   0.396 -10.606  1.00  0.00    -0.207 F 
ENDBRANCH  20  24
BRANCH  22  31
ATOM     31  C   UNL     1       4.565   2.522 -11.362  1.00  0.00     0.162 C 
BRANCH  31  32
ATOM     32  C   UNL     1       5.765   2.921 -12.184  1.00  0.00     0.145 A 
ATOM     33  N   UNL     1       6.621   2.099 -12.721  1.00  0.00    -0.157 NA
ATOM     34  N   UNL     1       6.018   4.224 -12.416  1.00  0.00    -0.292 N 
ATOM     35  N   UNL     1       7.517   2.932 -13.343  1.00  0.00    -0.227 N 
ATOM     36  C   UNL     1       7.183   4.261 -13.117  1.00  0.00     0.340 A 
ATOM     37  O   UNL     1       7.813   5.250 -13.444  1.00  0.00    -0.246 OA
ATOM     38  H   UNL     1       5.562   5.014 -11.995  1.00  0.00     0.173 HD
ATOM     39  H   UNL     1       8.356   2.598 -13.798  1.00  0.00     0.195 HD
ENDBRANCH  31  32
ENDBRANCH  22  31
ENDBRANCH   1  18
TORSDOF 8
ENDMDL
MODEL 2
REMARK VINA RESULT:   -11.203      0.067      2.909
REMARK INTER + INTRA:         -15.808
REMARK INTER:                 -16.508
REMARK INTRA:                   0.700
REMARK UNBOUND:                 0.635
REMARK SMILES C[C@@H](O[C@H]1OCCN(Cc2n[nH]c(=O)[nH]2)[C@H]1c1ccc(F)cc1)c1cc(C(F)(F)F)cc(C(F)(F)F)c1
REMARK SMILES IDX 3 1 2 2 1 3 24 4 25 5 37 6 26 7 32 8 31 9 27 10 28 11 29 12
REMARK SMILES IDX 30 13 33 14 34 15 35 16 36 17 4 18 5 19 16 20 6 21 8 22 7 23
REMARK SMILES IDX 17 24 18 25 23 26 19 27 22 28 20 29 21 30 9 31 10 32 11 33
REMARK SMILES IDX 15 34 12 35 13 36 14 37
REMARK H PARENT 15 38 12 39
ROOT
ATOM      1  O   UNL     1       5.187   0.788  -8.598  1.00  0.00    -0.343 OA
ENDROOT
BRANCH   1   2
ATOM      2  C   UNL     1       6.131   0.135  -7.742  1.00  0.00     0.148 C 
ATOM      3  C   UNL     1       6.898  -0.875  -8.596  1.00  0.00     0.044 C 
BRANCH   2   4
ATOM      4  C   UNL     1       5.411  -0.541  -6.587  1.00  0.00    -0.018 A 
ATOM      5  C   UNL     1       4.287   0.069  -6.010  1.00  0.00     0.019 A 
ATOM      6  C   UNL     1       5.828  -1.786  -6.092  1.00  0.00     0.019 A 
ATOM      7  C   UNL     1       3.590  -0.541  -4.952  1.00  0.00     0.056 A 
ATOM      8  C   UNL     1       5.138  -2.428  -5.052  1.00  0.00     0.056 A 
ATOM      9  C   UNL     1       4.021  -1.793  -4.487  1.00  0.00     0.026 A 
BRANCH   7  10
ATOM     10  C   UNL     1       2.370   0.124  -4.359  1.00  0.00     0.416 C 
ATOM     11  F   UNL     1       2.641   0.736  -3.174  1.00  0.00    -0.166 F 
ATOM     12  F   UNL     1       1.839   1.085  -5.167  1.00  0.00    -0.166 F 
ATOM     13  F   UNL     1       1.357  -0.751  -4.107  1.00  0.00    -0.166 F 
ENDBRANCH   7  10
BRANCH   8  14
ATOM     14  C   UNL     1       5.610  -3.775  -4.558  1.00  0.00     0.416 C 
ATOM     15  F   UNL     1       4.938  -4.184  -3.446  1.00  0.00    -0.166 F 
ATOM     16  F   UNL     1       5.437  -4.757  -5.484  1.00  0.00    -0.166 F 
ATOM     17  F   UNL     1       6.930  -3.799  -4.226  1.00  0.00    -0.166 F 
ENDBRANCH   8  14
ENDBRANCH   2   4
ENDBRANCH   1   2
BRANCH   1  18
ATOM     18  C   UNL     1       4.497   1.869  -7.956  1.00  0.00     0.272 C 
ATOM     19  O   UNL     1       5.440   2.721  -7.278  1.00  0.00    -0.349 OA
ATOM     20  C   UNL     1       3.646   2.702  -8.993  1.00  0.00     0.144 C 
ATOM     21  C   UNL     1       5.904   3.819  -8.075  1.00  0.00     0.179 C 
ATOM     22  N   UNL     1       4.460   3.318 -10.095  1.00  0.00    -0.282 NA
ATOM     23  C   UNL     1       5.844   3.558  -9.590  1.00  0.00     0.114 C 
BRANCH  20  24
ATOM     24  C   UNL     1       2.326   2.080  -9.441  1.00  0.00    -0.025 A 
ATOM     25  C   UNL     1       1.986   1.922 -10.794  1.00  0.00     0.008 A 
ATOM     26  C   UNL     1       1.391   1.676  -8.466  1.00  0.00     0.008 A 
ATOM     27  C   UNL     1       0.766   1.352 -11.164  1.00  0.00     0.039 A 
ATOM     28  C   UNL     1       0.172   1.107  -8.837  1.00  0.00     0.039 A 
ATOM     29  C   UNL     1      -0.129   0.948 -10.182  1.00  0.00     0.123 A 
ATOM     30  F   UNL     1      -1.299   0.403 -10.538  1.00  0.00    -0.207 F 
ENDBRANCH  20  24
BRANCH  22  31
ATOM     31  C   UNL     1       4.524   2.482 -11.318  1.00  0.00     0.162 C 
BRANCH  31  32
ATOM     32  C   UNL     1       5.711   2.884 -12.157  1.00  0.00     0.145 A 
ATOM     33  N   UNL     1       6.568   2.065 -12.698  1.00  0.00    -0.157 NA
ATOM     34  N   UNL     1       5.951   4.187 -12.403  1.00  0.00    -0.292 N 
ATOM     35  N   UNL     1       7.449   2.900 -13.337  1.00  0.00    -0.227 N 
ATOM     36  C   UNL     1       7.108   4.228 -13.117  1.00  0.00     0.340 A 
ATOM     37  O   UNL     1       7.726   5.219 -13.459  1.00  0.00    -0.246 OA
ATOM     38  H   UNL     1       5.493   4.977 -11.982  1.00  0.00     0.173 HD
ATOM     39  H   UNL     1       8.285   2.569 -13.799  1.00  0.00     0.195 HD
ENDBRANCH  31  32
ENDBRANCH  22  31
ENDBRANCH   1  18
TORSDOF 8
ENDMDL
