MODEL 1
REMARK VINA RESULT:   -10.758      0.000      0.000
REMARK INTER + INTRA:         -15.187
REMARK INTER:                 -14.217
REMARK INTRA:                  -0.970
REMARK UNBOUND:                -0.970
REMARK SMILES CC(C)C[C@H]1C(=O)N2CCC[C@H]2[C@]2(O)O[C@](NC(=O)[C@@H]3C=C4c5cccc6[nH]c(Br)c(c56)C[C@H]4N(C)C3)(C(C)C)C(=O)N12
REMARK SMILES IDX 5 1 6 2 7 3 8 4 9 5 10 6 11 7 12 8 13 9 15 10 16 11 41 12
REMARK SMILES IDX 42 13 43 14 4 15 2 16 1 17 3 18 14 19 17 21 18 22 19 23
REMARK SMILES IDX 20 25 21 26 37 27 22 28 35 29 23 30 34 31 24 32 32 33 33 34
REMARK SMILES IDX 25 35 31 36 27 37 26 38 29 39 28 40 36 41 30 42 38 44 39 45
REMARK SMILES IDX 40 46
REMARK H PARENT 14 20 17 24 28 43
ROOT
ATOM      1  C   UNL     1     101.500 123.908  89.727  1.00  0.00     0.180 C 
ATOM      2  C   UNL     1     101.006 123.780  88.248  1.00  0.00     0.246 C 
ATOM      3  O   UNL     1      99.821 123.768  87.928  1.00  0.00    -0.272 OA
ATOM      4  N   UNL     1     102.003 123.564  87.319  1.00  0.00    -0.330 N 
ATOM      5  C   UNL     1     101.792 123.383  85.898  1.00  0.00     0.120 C 
ATOM      6  C   UNL     1     103.150 122.919  85.380  1.00  0.00     0.024 C 
ATOM      7  C   UNL     1     104.141 123.545  86.363  1.00  0.00     0.035 C 
ATOM      8  C   UNL     1     103.402 123.424  87.697  1.00  0.00     0.168 C 
ATOM      9  C   UNL     1     103.780 124.443  88.792  1.00  0.00     0.276 C 
ATOM     10  O   UNL     1     105.074 124.138  89.288  1.00  0.00    -0.294 OA
ATOM     11  C   UNL     1     105.105 124.482  90.705  1.00  0.00     0.228 C 
ATOM     12  C   UNL     1     103.627 124.171  91.044  1.00  0.00     0.281 C 
ATOM     13  O   UNL     1     103.171 123.778  92.106  1.00  0.00    -0.269 OA
ATOM     14  N   UNL     1     102.885 124.376  89.892  1.00  0.00    -0.273 N 
ENDROOT
BRANCH   1  15
ATOM     15  C   UNL     1     100.475 124.641  90.622  1.00  0.00     0.038 C 
BRANCH  15  16
ATOM     16  C   UNL     1     100.487 126.185  90.694  1.00  0.00    -0.015 C 
ATOM     17  C   UNL     1      99.580 126.841  89.656  1.00  0.00     0.007 C 
ATOM     18  C   UNL     1     100.199 126.750  92.084  1.00  0.00     0.007 C 
ENDBRANCH  15  16
ENDBRANCH   1  15
BRANCH   9  19
ATOM     19  O   UNL     1     103.755 125.780  88.331  1.00  0.00    -0.347 OA
ATOM     20  H   UNL     1     103.110 125.812  87.605  1.00  0.00     0.216 HD
ENDBRANCH   9  19
BRANCH  11  21
ATOM     21  N   UNL     1     105.472 125.881  90.694  1.00  0.00    -0.319 N 
ATOM     22  C   UNL     1     106.684 126.382  90.294  1.00  0.00     0.230 C 
ATOM     23  O   UNL     1     107.609 125.680  89.902  1.00  0.00    -0.274 OA
ATOM     24  H   UNL     1     104.904 126.461  91.300  1.00  0.00     0.166 HD
BRANCH  22  25
ATOM     25  C   UNL     1     106.815 127.909  90.383  1.00  0.00     0.115 C 
ATOM     26  C   UNL     1     106.634 128.515  89.012  1.00  0.00    -0.007 C 
ATOM     27  C   UNL     1     108.171 128.280  91.019  1.00  0.00     0.102 C 
ATOM     28  C   UNL     1     107.506 129.405  88.500  1.00  0.00    -0.026 C 
ATOM     29  N   UNL     1     108.574 129.686  90.812  1.00  0.00    -0.298 NA
ATOM     30  C   UNL     1     107.410 129.842  87.086  1.00  0.00    -0.011 A 
ATOM     31  C   UNL     1     108.688 129.968  89.348  1.00  0.00     0.091 C 
ATOM     32  C   UNL     1     106.683 129.254  86.042  1.00  0.00     0.009 A 
ATOM     33  C   UNL     1     108.198 130.957  86.762  1.00  0.00     0.011 A 
ATOM     34  C   UNL     1     109.071 131.468  89.056  1.00  0.00     0.063 C 
ATOM     35  C   UNL     1     106.745 129.768  84.739  1.00  0.00     0.003 A 
ATOM     36  C   UNL     1     109.016 131.756  87.596  1.00  0.00    -0.005 A 
ATOM     37  C   UNL     1     108.263 131.455  85.469  1.00  0.00     0.047 A 
ATOM     38  C   UNL     1     107.539 130.880  84.422  1.00  0.00     0.027 A 
ATOM     39  C   UNL     1     109.575 132.718  86.795  1.00  0.00     0.086 A 
ATOM     40  N   UNL     1     109.123 132.531  85.515  1.00  0.00    -0.349 N 
ATOM     41  C   UNL     1     107.678 130.597  91.525  1.00  0.00     0.106 C 
ATOM     42  Br  UNL     1     110.753 134.104  87.331  1.00  0.00    -0.031 Br
ATOM     43  H   UNL     1     109.373 133.111  84.726  1.00  0.00     0.167 HD
ENDBRANCH  22  25
ENDBRANCH  11  21
BRANCH  11  44
ATOM     44  C   UNL     1     106.124 123.517  91.362  1.00  0.00     0.046 C 
ATOM     45  C   UNL     1     105.815 122.028  91.212  1.00  0.00     0.013 C 
ATOM     46  C   UNL     1     106.345 123.832  92.850  1.00  0.00     0.013 C 
ENDBRANCH  11  44
TORSDOF 6
ENDMDL
MODEL 2
REMARK VINA RESULT:   -10.525      4.154      8.328
REMARK INTER + INTRA:         -14.879
REMARK INTER:                 -14.098
REMARK INTRA:                  -0.781
REMARK UNBOUND:                -0.970
REMARK SMILES CC(C)C[C@H]1C(=O)N2CCC[C@H]2[C@]2(O)O[C@](NC(=O)[C@@H]3C=C4c5cccc6[nH]c(Br)c(c56)C[C@H]4N(C)C3)(C(C)C)C(=O)N12
REMARK SMILES IDX 5 1 6 2 7 3 8 4 9 5 10 6 11 7 12 8 13 9 15 10 16 11 41 12
REMARK SMILES IDX 42 13 43 14 4 15 2 16 1 17 3 18 14 19 17 21 18 22 19 23
REMARK SMILES IDX 20 25 21 26 37 27 22 28 35 29 23 30 34 31 24 32 32 33 33 34
REMARK SMILES IDX 25 35 31 36 27 37 26 38 29 39 28 40 36 41 30 42 38 44 39 45
REMARK SMILES IDX 40 46
REMARK H PARENT 14 20 17 24 28 43
ROOT
ATOM      1  C   UNL     1     110.593 126.093  95.444  1.00  0.00     0.180 C 
ATOM      2  C   UNL     1     111.864 126.963  95.722  1.00  0.00     0.246 C 
ATOM      3  O   UNL     1     112.952 126.492  96.038  1.00  0.00    -0.272 OA
ATOM      4  N   UNL     1     111.650 128.326  95.699  1.00  0.00    -0.330 N 
ATOM      5  C   UNL     1     112.661 129.331  95.956  1.00  0.00     0.120 C 
ATOM      6  C   UNL     1     111.867 130.629  96.075  1.00  0.00     0.024 C 
ATOM      7  C   UNL     1     110.638 130.378  95.199  1.00  0.00     0.035 C 
ATOM      8  C   UNL     1     110.333 128.904  95.476  1.00  0.00     0.168 C 
ATOM      9  C   UNL     1     109.577 128.135  94.372  1.00  0.00     0.276 C 
ATOM     10  O   UNL     1     108.230 128.581  94.332  1.00  0.00    -0.294 OA
ATOM     11  C   UNL     1     107.392 127.447  93.963  1.00  0.00     0.228 C 
ATOM     12  C   UNL     1     108.225 126.325  94.628  1.00  0.00     0.281 C 
ATOM     13  O   UNL     1     107.823 125.275  95.101  1.00  0.00    -0.269 OA
ATOM     14  N   UNL     1     109.546 126.742  94.640  1.00  0.00    -0.273 N 
ENDROOT
BRANCH   1  15
ATOM     15  C   UNL     1     110.957 124.666  94.974  1.00  0.00     0.038 C 
BRANCH  15  16
ATOM     16  C   UNL     1     112.269 124.010  95.463  1.00  0.00    -0.015 C 
ATOM     17  C   UNL     1     112.041 122.921  96.508  1.00  0.00     0.007 C 
ATOM     18  C   UNL     1     113.166 123.491  94.341  1.00  0.00     0.007 C 
ENDBRANCH  15  16
ENDBRANCH   1  15
BRANCH   9  19
ATOM     19  O   UNL     1     110.162 128.290  93.094  1.00  0.00    -0.347 OA
ATOM     20  H   UNL     1     110.900 127.660  93.048  1.00  0.00     0.216 HD
ENDBRANCH   9  19
BRANCH  11  21
ATOM     21  N   UNL     1     107.413 127.480  92.517  1.00  0.00    -0.319 N 
ATOM     22  C   UNL     1     106.829 126.555  91.691  1.00  0.00     0.230 C 
ATOM     23  O   UNL     1     106.219 125.573  92.100  1.00  0.00    -0.274 OA
ATOM     24  H   UNL     1     108.155 128.050  92.128  1.00  0.00     0.166 HD
BRANCH  22  25
ATOM     25  C   UNL     1     107.001 126.825  90.190  1.00  0.00     0.115 C 
ATOM     26  C   UNL     1     108.002 127.937  89.985  1.00  0.00    -0.007 C 
ATOM     27  C   UNL     1     105.631 127.137  89.555  1.00  0.00     0.102 C 
ATOM     28  C   UNL     1     107.744 128.998  89.195  1.00  0.00    -0.026 C 
ATOM     29  N   UNL     1     105.709 127.779  88.226  1.00  0.00    -0.298 NA
ATOM     30  C   UNL     1     108.660 130.164  89.158  1.00  0.00    -0.011 A 
ATOM     31  C   UNL     1     106.445 129.076  88.334  1.00  0.00     0.091 C 
ATOM     32  C   UNL     1     109.681 130.495  90.059  1.00  0.00     0.009 A 
ATOM     33  C   UNL     1     108.420 131.063  88.108  1.00  0.00     0.011 A 
ATOM     34  C   UNL     1     106.605 129.790  86.939  1.00  0.00     0.063 C 
ATOM     35  C   UNL     1     110.425 131.673  89.905  1.00  0.00     0.003 A 
ATOM     36  C   UNL     1     107.480 130.989  87.054  1.00  0.00    -0.005 A 
ATOM     37  C   UNL     1     109.154 132.232  87.968  1.00  0.00     0.047 A 
ATOM     38  C   UNL     1     110.176 132.571  88.856  1.00  0.00     0.027 A 
ATOM     39  C   UNL     1     107.647 132.120  86.296  1.00  0.00     0.086 A 
ATOM     40  N   UNL     1     108.652 132.868  86.852  1.00  0.00    -0.349 N 
ATOM     41  C   UNL     1     106.267 126.858  87.234  1.00  0.00     0.106 C 
ATOM     42  Br  UNL     1     106.693 132.592  84.726  1.00  0.00    -0.031 Br
ATOM     43  H   UNL     1     108.986 133.748  86.484  1.00  0.00     0.167 HD
ENDBRANCH  22  25
ENDBRANCH  11  21
BRANCH  11  44
ATOM     44  C   UNL     1     106.013 127.693  94.627  1.00  0.00     0.046 C 
ATOM     45  C   UNL     1     105.232 128.896  94.099  1.00  0.00     0.013 C 
ATOM     46  C   UNL     1     106.116 127.799  96.157  1.00  0.00     0.013 C 
ENDBRANCH  11  44
TORSDOF 6
ENDMDL
MODEL 3
REMARK VINA RESULT:   -10.244      4.519      9.114
REMARK INTER + INTRA:         -14.508
REMARK INTER:                 -12.631
REMARK INTRA:                  -1.878
REMARK UNBOUND:                -0.970
REMARK SMILES CC(C)C[C@H]1C(=O)N2CCC[C@H]2[C@]2(O)O[C@](NC(=O)[C@@H]3C=C4c5cccc6[nH]c(Br)c(c56)C[C@H]4N(C)C3)(C(C)C)C(=O)N12
REMARK SMILES IDX 5 1 6 2 7 3 8 4 9 5 10 6 11 7 12 8 13 9 15 10 16 11 41 12
REMARK SMILES IDX 42 13 43 14 4 15 2 16 1 17 3 18 14 19 17 21 18 22 19 23
REMARK SMILES IDX 20 25 21 26 37 27 22 28 35 29 23 30 34 31 24 32 32 33 33 34
REMARK SMILES IDX 25 35 31 36 27 37 26 38 29 39 28 40 36 41 30 42 38 44 39 45
REMARK SMILES IDX 40 46
REMARK H PARENT 14 20 17 24 28 43
ROOT
ATOM      1  C   UNL     1     106.837 133.068  84.981  1.00  0.00     0.180 C 
ATOM      2  C   UNL     1     105.412 133.687  85.174  1.00  0.00     0.246 C 
ATOM      3  O   UNL     1     104.496 133.541  84.371  1.00  0.00    -0.272 OA
ATOM      4  N   UNL     1     105.283 134.516  86.269  1.00  0.00    -0.330 N 
ATOM      5  C   UNL     1     104.076 135.226  86.638  1.00  0.00     0.120 C 
ATOM      6  C   UNL     1     104.533 136.185  87.733  1.00  0.00     0.024 C 
ATOM      7  C   UNL     1     105.726 135.466  88.364  1.00  0.00     0.035 C 
ATOM      8  C   UNL     1     106.401 134.823  87.150  1.00  0.00     0.168 C 
ATOM      9  C   UNL     1     107.250 133.562  87.418  1.00  0.00     0.276 C 
ATOM     10  O   UNL     1     108.441 133.936  88.094  1.00  0.00    -0.294 OA
ATOM     11  C   UNL     1     109.506 133.042  87.656  1.00  0.00     0.228 C 
ATOM     12  C   UNL     1     109.018 132.804  86.206  1.00  0.00     0.281 C 
ATOM     13  O   UNL     1     109.696 132.582  85.216  1.00  0.00    -0.269 OA
ATOM     14  N   UNL     1     107.638 132.932  86.207  1.00  0.00    -0.273 N 
ENDROOT
BRANCH   1  15
ATOM     15  C   UNL     1     106.805 131.797  84.102  1.00  0.00     0.038 C 
BRANCH  15  16
ATOM     16  C   UNL     1     106.486 130.429  84.747  1.00  0.00    -0.015 C 
ATOM     17  C   UNL     1     105.110 129.891  84.362  1.00  0.00     0.007 C 
ATOM     18  C   UNL     1     107.555 129.363  84.518  1.00  0.00     0.007 C 
ENDBRANCH  15  16
ENDBRANCH   1  15
BRANCH   9  19
ATOM     19  O   UNL     1     106.563 132.588  88.179  1.00  0.00    -0.347 OA
ATOM     20  H   UNL     1     106.161 131.972  87.544  1.00  0.00     0.216 HD
ENDBRANCH   9  19
BRANCH  11  21
ATOM     21  N   UNL     1     109.383 131.918  88.558  1.00  0.00    -0.319 N 
ATOM     22  C   UNL     1     109.725 131.924  89.886  1.00  0.00     0.230 C 
ATOM     23  O   UNL     1     110.192 132.901  90.460  1.00  0.00    -0.274 OA
ATOM     24  H   UNL     1     109.328 131.020  88.094  1.00  0.00     0.166 HD
BRANCH  22  25
ATOM     25  C   UNL     1     109.495 130.595  90.620  1.00  0.00     0.115 C 
ATOM     26  C   UNL     1     108.684 129.667  89.749  1.00  0.00    -0.007 C 
ATOM     27  C   UNL     1     108.827 130.862  91.985  1.00  0.00     0.102 C 
ATOM     28  C   UNL     1     107.586 129.033  90.204  1.00  0.00    -0.026 C 
ATOM     29  N   UNL     1     108.215 129.669  92.605  1.00  0.00    -0.298 NA
ATOM     30  C   UNL     1     106.702 128.278  89.282  1.00  0.00    -0.011 A 
ATOM     31  C   UNL     1     107.160 129.114  91.702  1.00  0.00     0.091 C 
ATOM     32  C   UNL     1     106.660 128.330  87.882  1.00  0.00     0.009 A 
ATOM     33  C   UNL     1     105.761 127.454  89.917  1.00  0.00     0.011 A 
ATOM     34  C   UNL     1     106.499 127.809  92.286  1.00  0.00     0.063 C 
ATOM     35  C   UNL     1     105.719 127.583  87.160  1.00  0.00     0.003 A 
ATOM     36  C   UNL     1     105.574 127.194  91.295  1.00  0.00    -0.005 A 
ATOM     37  C   UNL     1     104.825 126.726  89.197  1.00  0.00     0.047 A 
ATOM     38  C   UNL     1     104.777 126.766  87.802  1.00  0.00     0.027 A 
ATOM     39  C   UNL     1     104.520 126.322  91.393  1.00  0.00     0.086 A 
ATOM     40  N   UNL     1     104.069 126.046  90.128  1.00  0.00    -0.349 N 
ATOM     41  C   UNL     1     109.241 128.696  92.988  1.00  0.00     0.106 C 
ATOM     42  Br  UNL     1     103.798 125.579  92.981  1.00  0.00    -0.031 Br
ATOM     43  H   UNL     1     103.305 125.421  89.913  1.00  0.00     0.167 HD
ENDBRANCH  22  25
ENDBRANCH  11  21
BRANCH  11  44
ATOM     44  C   UNL     1     110.822 133.853  87.758  1.00  0.00     0.046 C 
ATOM     45  C   UNL     1     110.820 135.206  87.047  1.00  0.00     0.013 C 
ATOM     46  C   UNL     1     112.041 133.046  87.284  1.00  0.00     0.013 C 
ENDBRANCH  11  44
TORSDOF 6
ENDMDL
MODEL 4
REMARK VINA RESULT:   -10.074      4.896      9.212
REMARK INTER + INTRA:         -14.283
REMARK INTER:                 -12.808
REMARK INTRA:                  -1.475
REMARK UNBOUND:                -0.970
REMARK SMILES CC(C)C[C@H]1C(=O)N2CCC[C@H]2[C@]2(O)O[C@](NC(=O)[C@@H]3C=C4c5cccc6[nH]c(Br)c(c56)C[C@H]4N(C)C3)(C(C)C)C(=O)N12
REMARK SMILES IDX 5 1 6 2 7 3 8 4 9 5 10 6 11 7 12 8 13 9 15 10 16 11 41 12
REMARK SMILES IDX 42 13 43 14 4 15 2 16 1 17 3 18 14 19 17 21 18 22 19 23
REMARK SMILES IDX 20 25 21 26 37 27 22 28 35 29 23 30 34 31 24 32 32 33 33 34
REMARK SMILES IDX 25 35 31 36 27 37 26 38 29 39 28 40 36 41 30 42 38 44 39 45
REMARK SMILES IDX 40 46
REMARK H PARENT 14 20 17 24 28 43
ROOT
ATOM      1  C   UNL     1     111.914 126.725  95.988  1.00  0.00     0.180 C 
ATOM      2  C   UNL     1     113.017 127.765  96.377  1.00  0.00     0.246 C 
ATOM      3  O   UNL     1     114.188 127.464  96.591  1.00  0.00    -0.272 OA
ATOM      4  N   UNL     1     112.558 129.050  96.577  1.00  0.00    -0.330 N 
ATOM      5  C   UNL     1     113.379 130.176  96.972  1.00  0.00     0.120 C 
ATOM      6  C   UNL     1     112.369 131.267  97.313  1.00  0.00     0.024 C 
ATOM      7  C   UNL     1     111.165 130.928  96.434  1.00  0.00     0.035 C 
ATOM      8  C   UNL     1     111.148 129.399  96.476  1.00  0.00     0.168 C 
ATOM      9  C   UNL     1     110.490 128.680  95.278  1.00  0.00     0.276 C 
ATOM     10  O   UNL     1     109.084 128.866  95.338  1.00  0.00    -0.294 OA
ATOM     11  C   UNL     1     108.450 127.665  94.808  1.00  0.00     0.228 C 
ATOM     12  C   UNL     1     109.506 126.631  95.268  1.00  0.00     0.281 C 
ATOM     13  O   UNL     1     109.326 125.464  95.574  1.00  0.00    -0.269 OA
ATOM     14  N   UNL     1     110.728 127.282  95.319  1.00  0.00    -0.273 N 
ENDROOT
BRANCH   1  15
ATOM     15  C   UNL     1     112.509 125.481  95.288  1.00  0.00     0.038 C 
BRANCH  15  16
ATOM     16  C   UNL     1     112.866 124.231  96.123  1.00  0.00    -0.015 C 
ATOM     17  C   UNL     1     113.114 124.544  97.596  1.00  0.00     0.007 C 
ATOM     18  C   UNL     1     111.872 123.079  95.984  1.00  0.00     0.007 C 
ENDBRANCH  15  16
ENDBRANCH   1  15
BRANCH   9  19
ATOM     19  O   UNL     1     110.974 129.137  94.031  1.00  0.00    -0.347 OA
ATOM     20  H   UNL     1     111.939 129.029  94.050  1.00  0.00     0.216 HD
ENDBRANCH   9  19
BRANCH  11  21
ATOM     21  N   UNL     1     108.394 127.924  93.386  1.00  0.00    -0.319 N 
ATOM     22  C   UNL     1     107.971 127.035  92.432  1.00  0.00     0.230 C 
ATOM     23  O   UNL     1     107.596 125.896  92.687  1.00  0.00    -0.274 OA
ATOM     24  H   UNL     1     108.983 128.690  93.082  1.00  0.00     0.166 HD
BRANCH  22  25
ATOM     25  C   UNL     1     108.011 127.563  90.991  1.00  0.00     0.115 C 
ATOM     26  C   UNL     1     108.765 128.870  90.949  1.00  0.00    -0.007 C 
ATOM     27  C   UNL     1     106.575 127.690  90.441  1.00  0.00     0.102 C 
ATOM     28  C   UNL     1     108.267 129.967  90.346  1.00  0.00    -0.026 C 
ATOM     29  N   UNL     1     106.459 128.532  89.233  1.00  0.00    -0.298 NA
ATOM     30  C   UNL     1     108.937 131.283  90.479  1.00  0.00    -0.011 A 
ATOM     31  C   UNL     1     106.935 129.917  89.534  1.00  0.00     0.091 C 
ATOM     32  C   UNL     1     109.920 131.668  91.402  1.00  0.00     0.009 A 
ATOM     33  C   UNL     1     108.474 132.269  89.594  1.00  0.00     0.011 A 
ATOM     34  C   UNL     1     106.883 130.856  88.270  1.00  0.00     0.063 C 
ATOM     35  C   UNL     1     110.413 132.980  91.426  1.00  0.00     0.003 A 
ATOM     36  C   UNL     1     107.513 132.173  88.560  1.00  0.00    -0.005 A 
ATOM     37  C   UNL     1     108.960 133.568  89.630  1.00  0.00     0.047 A 
ATOM     38  C   UNL     1     109.942 133.961  90.541  1.00  0.00     0.027 A 
ATOM     39  C   UNL     1     107.419 133.417  87.992  1.00  0.00     0.086 A 
ATOM     40  N   UNL     1     108.288 134.256  88.642  1.00  0.00    -0.349 N 
ATOM     41  C   UNL     1     107.133 127.905  88.094  1.00  0.00     0.106 C 
ATOM     42  Br  UNL     1     106.313 133.927  86.539  1.00  0.00    -0.031 Br
ATOM     43  H   UNL     1     108.426 135.230  88.414  1.00  0.00     0.167 HD
ENDBRANCH  22  25
ENDBRANCH  11  21
BRANCH  11  44
ATOM     44  C   UNL     1     107.085 127.542  95.530  1.00  0.00     0.046 C 
ATOM     45  C   UNL     1     106.045 128.600  95.160  1.00  0.00     0.013 C 
ATOM     46  C   UNL     1     107.237 127.509  97.059  1.00  0.00     0.013 C 
ENDBRANCH  11  44
TORSDOF 6
ENDMDL
MODEL 5
REMARK VINA RESULT:   -10.063      4.967      9.299
REMARK INTER + INTRA:         -14.269
REMARK INTER:                 -12.200
REMARK INTRA:                  -2.069
REMARK UNBOUND:                -0.970
REMARK SMILES CC(C)C[C@H]1C(=O)N2CCC[C@H]2[C@]2(O)O[C@](NC(=O)[C@@H]3C=C4c5cccc6[nH]c(Br)c(c56)C[C@H]4N(C)C3)(C(C)C)C(=O)N12
REMARK SMILES IDX 5 1 6 2 7 3 8 4 9 5 10 6 11 7 12 8 13 9 15 10 16 11 41 12
REMARK SMILES IDX 42 13 43 14 4 15 2 16 1 17 3 18 14 19 17 21 18 22 19 23
REMARK SMILES IDX 20 25 21 26 37 27 22 28 35 29 23 30 34 31 24 32 32 33 33 34
REMARK SMILES IDX 25 35 31 36 27 37 26 38 29 39 28 40 36 41 30 42 38 44 39 45
REMARK SMILES IDX 40 46
REMARK H PARENT 14 20 17 24 28 43
ROOT
ATOM      1  C   UNL     1     106.054 133.218  84.942  1.00  0.00     0.180 C 
ATOM      2  C   UNL     1     104.532 133.489  85.188  1.00  0.00     0.246 C 
ATOM      3  O   UNL     1     103.637 132.984  84.519  1.00  0.00    -0.272 OA
ATOM      4  N   UNL     1     104.262 134.438  86.153  1.00  0.00    -0.330 N 
ATOM      5  C   UNL     1     102.937 134.880  86.535  1.00  0.00     0.120 C 
ATOM      6  C   UNL     1     103.196 136.099  87.417  1.00  0.00     0.024 C 
ATOM      7  C   UNL     1     104.573 135.817  88.020  1.00  0.00     0.035 C 
ATOM      8  C   UNL     1     105.314 135.160  86.854  1.00  0.00     0.168 C 
ATOM      9  C   UNL     1     106.478 134.214  87.218  1.00  0.00     0.276 C 
ATOM     10  O   UNL     1     107.570 134.982  87.699  1.00  0.00    -0.294 OA
ATOM     11  C   UNL     1     108.802 134.317  87.291  1.00  0.00     0.228 C 
ATOM     12  C   UNL     1     108.302 133.718  85.955  1.00  0.00     0.281 C 
ATOM     13  O   UNL     1     108.949 133.501  84.943  1.00  0.00    -0.269 OA
ATOM     14  N   UNL     1     106.940 133.499  86.082  1.00  0.00    -0.273 N 
ENDROOT
BRANCH   1  15
ATOM     15  C   UNL     1     106.299 131.845  84.275  1.00  0.00     0.038 C 
BRANCH  15  16
ATOM     16  C   UNL     1     106.512 130.593  85.156  1.00  0.00    -0.015 C 
ATOM     17  C   UNL     1     105.214 129.855  85.472  1.00  0.00     0.007 C 
ATOM     18  C   UNL     1     107.559 129.619  84.620  1.00  0.00     0.007 C 
ENDBRANCH  15  16
ENDBRANCH   1  15
BRANCH   9  19
ATOM     19  O   UNL     1     106.119 133.248  88.187  1.00  0.00    -0.347 OA
ATOM     20  H   UNL     1     106.220 133.674  89.054  1.00  0.00     0.216 HD
ENDBRANCH   9  19
BRANCH  11  21
ATOM     21  N   UNL     1     109.034 133.373  88.362  1.00  0.00    -0.319 N 
ATOM     22  C   UNL     1     110.122 132.545  88.470  1.00  0.00     0.230 C 
ATOM     23  O   UNL     1     111.029 132.510  87.647  1.00  0.00    -0.274 OA
ATOM     24  H   UNL     1     108.199 133.115  88.874  1.00  0.00     0.166 HD
BRANCH  22  25
ATOM     25  C   UNL     1     110.124 131.636  89.707  1.00  0.00     0.115 C 
ATOM     26  C   UNL     1     109.239 130.438  89.460  1.00  0.00    -0.007 C 
ATOM     27  C   UNL     1     109.694 132.444  90.950  1.00  0.00     0.102 C 
ATOM     28  C   UNL     1     108.289 130.056  90.335  1.00  0.00    -0.026 C 
ATOM     29  N   UNL     1     109.292 131.614  92.104  1.00  0.00    -0.298 NA
ATOM     30  C   UNL     1     107.311 128.996  89.986  1.00  0.00    -0.011 A 
ATOM     31  C   UNL     1     108.134 130.747  91.725  1.00  0.00     0.091 C 
ATOM     32  C   UNL     1     107.014 128.470  88.721  1.00  0.00     0.009 A 
ATOM     33  C   UNL     1     106.561 128.512  91.069  1.00  0.00     0.011 A 
ATOM     34  C   UNL     1     107.685 129.801  92.901  1.00  0.00     0.063 C 
ATOM     35  C   UNL     1     106.015 127.501  88.559  1.00  0.00     0.003 A 
ATOM     36  C   UNL     1     106.644 128.841  92.442  1.00  0.00    -0.005 A 
ATOM     37  C   UNL     1     105.566 127.560  90.899  1.00  0.00     0.047 A 
ATOM     38  C   UNL     1     105.265 127.025  89.645  1.00  0.00     0.027 A 
ATOM     39  C   UNL     1     105.691 128.094  93.085  1.00  0.00     0.086 A 
ATOM     40  N   UNL     1     105.040 127.327  92.153  1.00  0.00    -0.349 N 
ATOM     41  C   UNL     1     110.437 130.876  92.640  1.00  0.00     0.106 C 
ATOM     42  Br  UNL     1     105.321 128.073  94.945  1.00  0.00    -0.031 Br
ATOM     43  H   UNL     1     104.297 126.676  92.360  1.00  0.00     0.167 HD
ENDBRANCH  22  25
ENDBRANCH  11  21
BRANCH  11  44
ATOM     44  C   UNL     1     109.864 135.434  87.128  1.00  0.00     0.046 C 
ATOM     45  C   UNL     1     110.519 135.915  88.422  1.00  0.00     0.013 C 
ATOM     46  C   UNL     1     109.315 136.651  86.367  1.00  0.00     0.013 C 
ENDBRANCH  11  44
TORSDOF 6
ENDMDL
MODEL 6
REMARK VINA RESULT:    -9.915      1.924      3.369
REMARK INTER + INTRA:         -14.073
REMARK INTER:                 -13.364
REMARK INTRA:                  -0.709
REMARK UNBOUND:                -0.970
REMARK SMILES CC(C)C[C@H]1C(=O)N2CCC[C@H]2[C@]2(O)O[C@](NC(=O)[C@@H]3C=C4c5cccc6[nH]c(Br)c(c56)C[C@H]4N(C)C3)(C(C)C)C(=O)N12
REMARK SMILES IDX 5 1 6 2 7 3 8 4 9 5 10 6 11 7 12 8 13 9 15 10 16 11 41 12
REMARK SMILES IDX 42 13 43 14 4 15 2 16 1 17 3 18 14 19 17 21 18 22 19 23
REMARK SMILES IDX 20 25 21 26 37 27 22 28 35 29 23 30 34 31 24 32 32 33 33 34
REMARK SMILES IDX 25 35 31 36 27 37 26 38 29 39 28 40 36 41 30 42 38 44 39 45
REMARK SMILES IDX 40 46
REMARK H PARENT 14 20 17 24 28 43
ROOT
ATOM      1  C   UNL     1     101.716 124.941  88.431  1.00  0.00     0.180 C 
ATOM      2  C   UNL     1     101.133 124.441  87.066  1.00  0.00     0.246 C 
ATOM      3  O   UNL     1      99.970 124.622  86.719  1.00  0.00    -0.272 OA
ATOM      4  N   UNL     1     101.997 123.674  86.313  1.00  0.00    -0.330 N 
ATOM      5  C   UNL     1     101.678 123.076  85.033  1.00  0.00     0.120 C 
ATOM      6  C   UNL     1     102.848 122.133  84.766  1.00  0.00     0.024 C 
ATOM      7  C   UNL     1     104.011 122.786  85.514  1.00  0.00     0.035 C 
ATOM      8  C   UNL     1     103.332 123.322  86.775  1.00  0.00     0.168 C 
ATOM      9  C   UNL     1     104.008 124.524  87.468  1.00  0.00     0.276 C 
ATOM     10  O   UNL     1     105.205 124.090  88.094  1.00  0.00    -0.294 OA
ATOM     11  C   UNL     1     105.391 124.880  89.305  1.00  0.00     0.228 C 
ATOM     12  C   UNL     1     103.901 125.091  89.667  1.00  0.00     0.281 C 
ATOM     13  O   UNL     1     103.412 125.217  90.778  1.00  0.00    -0.269 OA
ATOM     14  N   UNL     1     103.180 125.069  88.484  1.00  0.00    -0.273 N 
ENDROOT
BRANCH   1  15
ATOM     15  C   UNL     1     100.953 126.171  88.973  1.00  0.00     0.038 C 
BRANCH  15  16
ATOM     16  C   UNL     1      99.805 125.975  89.989  1.00  0.00    -0.015 C 
ATOM     17  C   UNL     1      99.575 124.511  90.357  1.00  0.00     0.007 C 
ATOM     18  C   UNL     1      99.931 126.826  91.250  1.00  0.00     0.007 C 
ENDBRANCH  15  16
ENDBRANCH   1  15
BRANCH   9  19
ATOM     19  O   UNL     1     104.299 125.580  86.573  1.00  0.00    -0.347 OA
ATOM     20  H   UNL     1     105.237 125.802  86.701  1.00  0.00     0.216 HD
ENDBRANCH   9  19
BRANCH  11  21
ATOM     21  N   UNL     1     106.099 126.048  88.829  1.00  0.00    -0.319 N 
ATOM     22  C   UNL     1     105.980 127.314  89.341  1.00  0.00     0.230 C 
ATOM     23  O   UNL     1     105.236 127.599  90.272  1.00  0.00    -0.274 OA
ATOM     24  H   UNL     1     106.457 125.958  87.885  1.00  0.00     0.166 HD
BRANCH  22  25
ATOM     25  C   UNL     1     106.846 128.377  88.650  1.00  0.00     0.115 C 
ATOM     26  C   UNL     1     107.851 128.931  89.632  1.00  0.00    -0.007 C 
ATOM     27  C   UNL     1     105.944 129.473  88.045  1.00  0.00     0.102 C 
ATOM     28  C   UNL     1     108.021 130.255  89.815  1.00  0.00    -0.026 C 
ATOM     29  N   UNL     1     106.654 130.721  87.698  1.00  0.00    -0.298 NA
ATOM     30  C   UNL     1     108.873 130.772  90.913  1.00  0.00    -0.011 A 
ATOM     31  C   UNL     1     107.283 131.302  88.924  1.00  0.00     0.091 C 
ATOM     32  C   UNL     1     109.357 130.083  92.035  1.00  0.00     0.009 A 
ATOM     33  C   UNL     1     109.177 132.138  90.825  1.00  0.00     0.011 A 
ATOM     34  C   UNL     1     108.098 132.614  88.613  1.00  0.00     0.063 C 
ATOM     35  C   UNL     1     110.113 130.741  93.014  1.00  0.00     0.003 A 
ATOM     36  C   UNL     1     108.843 133.074  89.817  1.00  0.00    -0.005 A 
ATOM     37  C   UNL     1     109.918 132.786  91.804  1.00  0.00     0.047 A 
ATOM     38  C   UNL     1     110.409 132.110  92.922  1.00  0.00     0.027 A 
ATOM     39  C   UNL     1     109.374 134.277  90.204  1.00  0.00     0.086 A 
ATOM     40  N   UNL     1     110.017 134.101  91.403  1.00  0.00    -0.349 N 
ATOM     41  C   UNL     1     107.592 130.499  86.596  1.00  0.00     0.106 C 
ATOM     42  Br  UNL     1     109.283 135.920  89.261  1.00  0.00    -0.031 Br
ATOM     43  H   UNL     1     110.505 134.828  91.906  1.00  0.00     0.167 HD
ENDBRANCH  22  25
ENDBRANCH  11  21
BRANCH  11  44
ATOM     44  C   UNL     1     106.164 123.975  90.297  1.00  0.00     0.046 C 
ATOM     45  C   UNL     1     105.369 122.811  90.886  1.00  0.00     0.013 C 
ATOM     46  C   UNL     1     106.793 124.779  91.447  1.00  0.00     0.013 C 
ENDBRANCH  11  44
TORSDOF 6
ENDMDL
MODEL 7
REMARK VINA RESULT:    -9.643      5.136      8.051
REMARK INTER + INTRA:         -13.714
REMARK INTER:                 -12.476
REMARK INTRA:                  -1.237
REMARK UNBOUND:                -0.970
REMARK SMILES CC(C)C[C@H]1C(=O)N2CCC[C@H]2[C@]2(O)O[C@](NC(=O)[C@@H]3C=C4c5cccc6[nH]c(Br)c(c56)C[C@H]4N(C)C3)(C(C)C)C(=O)N12
REMARK SMILES IDX 5 1 6 2 7 3 8 4 9 5 10 6 11 7 12 8 13 9 15 10 16 11 41 12
REMARK SMILES IDX 42 13 43 14 4 15 2 16 1 17 3 18 14 19 17 21 18 22 19 23
REMARK SMILES IDX 20 25 21 26 37 27 22 28 35 29 23 30 34 31 24 32 32 33 33 34
REMARK SMILES IDX 25 35 31 36 27 37 26 38 29 39 28 40 36 41 30 42 38 44 39 45
REMARK SMILES IDX 40 46
REMARK H PARENT 14 20 17 24 28 43
ROOT
ATOM      1  C   UNL     1     105.103 126.142  90.498  1.00  0.00     0.180 C 
ATOM      2  C   UNL     1     105.285 124.722  89.865  1.00  0.00     0.246 C 
ATOM      3  O   UNL     1     105.028 124.464  88.693  1.00  0.00    -0.272 OA
ATOM      4  N   UNL     1     105.655 123.734  90.754  1.00  0.00    -0.330 N 
ATOM      5  C   UNL     1     105.853 122.340  90.413  1.00  0.00     0.120 C 
ATOM      6  C   UNL     1     105.978 121.645  91.766  1.00  0.00     0.024 C 
ATOM      7  C   UNL     1     106.542 122.736  92.678  1.00  0.00     0.035 C 
ATOM      8  C   UNL     1     105.819 123.988  92.178  1.00  0.00     0.168 C 
ATOM      9  C   UNL     1     106.529 125.338  92.415  1.00  0.00     0.276 C 
ATOM     10  O   UNL     1     106.477 125.655  93.798  1.00  0.00    -0.294 OA
ATOM     11  C   UNL     1     106.376 127.104  93.923  1.00  0.00     0.228 C 
ATOM     12  C   UNL     1     105.564 127.385  92.635  1.00  0.00     0.281 C 
ATOM     13  O   UNL     1     104.759 128.280  92.440  1.00  0.00    -0.269 OA
ATOM     14  N   UNL     1     105.880 126.393  91.722  1.00  0.00    -0.273 N 
ENDROOT
BRANCH   1  15
ATOM     15  C   UNL     1     105.206 127.267  89.442  1.00  0.00     0.038 C 
BRANCH  15  16
ATOM     16  C   UNL     1     106.548 127.517  88.718  1.00  0.00    -0.015 C 
ATOM     17  C   UNL     1     106.378 127.841  87.236  1.00  0.00     0.007 C 
ATOM     18  C   UNL     1     107.440 128.559  89.391  1.00  0.00     0.007 C 
ENDBRANCH  15  16
ENDBRANCH   1  15
BRANCH   9  19
ATOM     19  O   UNL     1     107.875 125.335  91.982  1.00  0.00    -0.347 OA
ATOM     20  H   UNL     1     108.071 126.237  91.679  1.00  0.00     0.216 HD
ENDBRANCH   9  19
BRANCH  11  21
ATOM     21  N   UNL     1     107.758 127.532  93.907  1.00  0.00    -0.319 N 
ATOM     22  C   UNL     1     108.210 128.744  93.454  1.00  0.00     0.230 C 
ATOM     23  O   UNL     1     107.476 129.611  92.994  1.00  0.00    -0.274 OA
ATOM     24  H   UNL     1     108.426 126.772  93.953  1.00  0.00     0.166 HD
BRANCH  22  25
ATOM     25  C   UNL     1     109.729 128.946  93.548  1.00  0.00     0.115 C 
ATOM     26  C   UNL     1     110.381 127.677  94.043  1.00  0.00    -0.007 C 
ATOM     27  C   UNL     1     110.040 130.161  94.447  1.00  0.00     0.102 C 
ATOM     28  C   UNL     1     111.258 127.673  95.066  1.00  0.00    -0.026 C 
ATOM     29  N   UNL     1     111.438 130.225  94.919  1.00  0.00    -0.298 NA
ATOM     30  C   UNL     1     111.739 126.399  95.655  1.00  0.00    -0.011 A 
ATOM     31  C   UNL     1     111.759 129.000  95.715  1.00  0.00     0.091 C 
ATOM     32  C   UNL     1     111.204 125.113  95.499  1.00  0.00     0.009 A 
ATOM     33  C   UNL     1     112.838 126.531  96.517  1.00  0.00     0.011 A 
ATOM     34  C   UNL     1     113.255 128.984  96.210  1.00  0.00     0.063 C 
ATOM     35  C   UNL     1     111.754 124.016  96.176  1.00  0.00     0.003 A 
ATOM     36  C   UNL     1     113.587 127.683  96.855  1.00  0.00    -0.005 A 
ATOM     37  C   UNL     1     113.371 125.442  97.191  1.00  0.00     0.047 A 
ATOM     38  C   UNL     1     112.849 124.156  97.040  1.00  0.00     0.027 A 
ATOM     39  C   UNL     1     114.555 127.280  97.738  1.00  0.00     0.086 A 
ATOM     40  N   UNL     1     114.419 125.931  97.942  1.00  0.00    -0.349 N 
ATOM     41  C   UNL     1     112.355 130.467  93.804  1.00  0.00     0.106 C 
ATOM     42  Br  UNL     1     115.888 128.364  98.542  1.00  0.00    -0.031 Br
ATOM     43  H   UNL     1     115.013 125.378  98.542  1.00  0.00     0.167 HD
ENDBRANCH  22  25
ENDBRANCH  11  21
BRANCH  11  44
ATOM     44  C   UNL     1     105.598 127.372  95.236  1.00  0.00     0.046 C 
ATOM     45  C   UNL     1     105.200 128.827  95.482  1.00  0.00     0.013 C 
ATOM     46  C   UNL     1     106.345 126.845  96.472  1.00  0.00     0.013 C 
ENDBRANCH  11  44
TORSDOF 6
ENDMDL
MODEL 8
REMARK VINA RESULT:    -9.558      4.406      7.101
REMARK INTER + INTRA:         -13.602
REMARK INTER:                 -12.951
REMARK INTRA:                  -0.651
REMARK UNBOUND:                -0.970
REMARK SMILES CC(C)C[C@H]1C(=O)N2CCC[C@H]2[C@]2(O)O[C@](NC(=O)[C@@H]3C=C4c5cccc6[nH]c(Br)c(c56)C[C@H]4N(C)C3)(C(C)C)C(=O)N12
REMARK SMILES IDX 5 1 6 2 7 3 8 4 9 5 10 6 11 7 12 8 13 9 15 10 16 11 41 12
REMARK SMILES IDX 42 13 43 14 4 15 2 16 1 17 3 18 14 19 17 21 18 22 19 23
REMARK SMILES IDX 20 25 21 26 37 27 22 28 35 29 23 30 34 31 24 32 32 33 33 34
REMARK SMILES IDX 25 35 31 36 27 37 26 38 29 39 28 40 36 41 30 42 38 44 39 45
REMARK SMILES IDX 40 46
REMARK H PARENT 14 20 17 24 28 43
ROOT
ATOM      1  C   UNL     1     108.976 127.213  94.217  1.00  0.00     0.180 C 
ATOM      2  C   UNL     1     108.077 127.255  95.498  1.00  0.00     0.246 C 
ATOM      3  O   UNL     1     108.507 127.077  96.633  1.00  0.00    -0.272 OA
ATOM      4  N   UNL     1     106.726 127.395  95.254  1.00  0.00    -0.330 N 
ATOM      5  C   UNL     1     105.697 127.428  96.272  1.00  0.00     0.120 C 
ATOM      6  C   UNL     1     104.395 127.324  95.482  1.00  0.00     0.024 C 
ATOM      7  C   UNL     1     104.747 127.945  94.129  1.00  0.00     0.035 C 
ATOM      8  C   UNL     1     106.180 127.456  93.906  1.00  0.00     0.168 C 
ATOM      9  C   UNL     1     107.072 128.321  92.991  1.00  0.00     0.276 C 
ATOM     10  O   UNL     1     106.637 128.182  91.647  1.00  0.00    -0.294 OA
ATOM     11  C   UNL     1     107.808 128.273  90.784  1.00  0.00     0.228 C 
ATOM     12  C   UNL     1     108.844 127.636  91.741  1.00  0.00     0.281 C 
ATOM     13  O   UNL     1     109.833 126.987  91.446  1.00  0.00    -0.269 OA
ATOM     14  N   UNL     1     108.426 127.897  93.036  1.00  0.00    -0.273 N 
ENDROOT
BRANCH   1  15
ATOM     15  C   UNL     1     110.447 127.573  94.527  1.00  0.00     0.038 C 
BRANCH  15  16
ATOM     16  C   UNL     1     110.780 128.928  95.192  1.00  0.00    -0.015 C 
ATOM     17  C   UNL     1     111.863 128.821  96.262  1.00  0.00     0.007 C 
ATOM     18  C   UNL     1     111.116 130.045  94.206  1.00  0.00     0.007 C 
ENDBRANCH  15  16
ENDBRANCH   1  15
BRANCH   9  19
ATOM     19  O   UNL     1     107.064 129.689  93.350  1.00  0.00    -0.347 OA
ATOM     20  H   UNL     1     107.355 129.735  94.276  1.00  0.00     0.216 HD
ENDBRANCH   9  19
BRANCH  11  21
ATOM     21  N   UNL     1     107.941 129.697  90.561  1.00  0.00    -0.319 N 
ATOM     22  C   UNL     1     109.091 130.423  90.729  1.00  0.00     0.230 C 
ATOM     23  O   UNL     1     110.151 129.935  91.102  1.00  0.00    -0.274 OA
ATOM     24  H   UNL     1     107.063 130.201  90.580  1.00  0.00     0.166 HD
BRANCH  22  25
ATOM     25  C   UNL     1     108.961 131.923  90.425  1.00  0.00     0.115 C 
ATOM     26  C   UNL     1     108.574 132.116  88.978  1.00  0.00    -0.007 C 
ATOM     27  C   UNL     1     110.274 132.645  90.788  1.00  0.00     0.102 C 
ATOM     28  C   UNL     1     109.236 132.962  88.165  1.00  0.00    -0.026 C 
ATOM     29  N   UNL     1     110.410 133.992  90.197  1.00  0.00    -0.298 NA
ATOM     30  C   UNL     1     108.960 132.996  86.708  1.00  0.00    -0.011 A 
ATOM     31  C   UNL     1     110.363 133.897  88.705  1.00  0.00     0.091 C 
ATOM     32  C   UNL     1     108.270 132.053  85.933  1.00  0.00     0.009 A 
ATOM     33  C   UNL     1     109.515 134.092  86.032  1.00  0.00     0.011 A 
ATOM     34  C   UNL     1     110.455 135.308  88.012  1.00  0.00     0.063 C 
ATOM     35  C   UNL     1     108.144 132.213  84.546  1.00  0.00     0.003 A 
ATOM     36  C   UNL     1     110.242 135.194  86.543  1.00  0.00    -0.005 A 
ATOM     37  C   UNL     1     109.395 134.239  84.658  1.00  0.00     0.047 A 
ATOM     38  C   UNL     1     108.706 133.310  83.876  1.00  0.00     0.027 A 
ATOM     39  C   UNL     1     110.563 135.986  85.472  1.00  0.00     0.086 A 
ATOM     40  N   UNL     1     110.055 135.406  84.337  1.00  0.00    -0.349 N 
ATOM     41  C   UNL     1     109.425 134.913  90.765  1.00  0.00     0.106 C 
ATOM     42  Br  UNL     1     111.518 137.624  85.510  1.00  0.00    -0.031 Br
ATOM     43  H   UNL     1     110.140 135.791  83.407  1.00  0.00     0.167 HD
ENDBRANCH  22  25
ENDBRANCH  11  21
BRANCH  11  44
ATOM     44  C   UNL     1     107.490 127.418  89.532  1.00  0.00     0.046 C 
ATOM     45  C   UNL     1     106.609 128.090  88.479  1.00  0.00     0.013 C 
ATOM     46  C   UNL     1     106.874 126.058  89.899  1.00  0.00     0.013 C 
ENDBRANCH  11  44
TORSDOF 6
ENDMDL
MODEL 9
REMARK VINA RESULT:    -9.384      4.587      9.898
REMARK INTER + INTRA:         -13.371
REMARK INTER:                 -12.532
REMARK INTRA:                  -0.838
REMARK UNBOUND:                -0.970
REMARK SMILES CC(C)C[C@H]1C(=O)N2CCC[C@H]2[C@]2(O)O[C@](NC(=O)[C@@H]3C=C4c5cccc6[nH]c(Br)c(c56)C[C@H]4N(C)C3)(C(C)C)C(=O)N12
REMARK SMILES IDX 5 1 6 2 7 3 8 4 9 5 10 6 11 7 12 8 13 9 15 10 16 11 41 12
REMARK SMILES IDX 42 13 43 14 4 15 2 16 1 17 3 18 14 19 17 21 18 22 19 23
REMARK SMILES IDX 20 25 21 26 37 27 22 28 35 29 23 30 34 31 24 32 32 33 33 34
REMARK SMILES IDX 25 35 31 36 27 37 26 38 29 39 28 40 36 41 30 42 38 44 39 45
REMARK SMILES IDX 40 46
REMARK H PARENT 14 20 17 24 28 43
ROOT
ATOM      1  C   UNL     1     106.362 135.028  87.438  1.00  0.00     0.180 C 
ATOM      2  C   UNL     1     107.116 136.328  87.877  1.00  0.00     0.246 C 
ATOM      3  O   UNL     1     106.553 137.307  88.357  1.00  0.00    -0.272 OA
ATOM      4  N   UNL     1     108.462 136.346  87.580  1.00  0.00    -0.330 N 
ATOM      5  C   UNL     1     109.361 137.448  87.858  1.00  0.00     0.120 C 
ATOM      6  C   UNL     1     110.637 137.081  87.106  1.00  0.00     0.024 C 
ATOM      7  C   UNL     1     110.607 135.552  87.076  1.00  0.00     0.035 C 
ATOM      8  C   UNL     1     109.120 135.256  86.874  1.00  0.00     0.168 C 
ATOM      9  C   UNL     1     108.611 133.889  87.380  1.00  0.00     0.276 C 
ATOM     10  O   UNL     1     109.102 132.865  86.530  1.00  0.00    -0.294 OA
ATOM     11  C   UNL     1     108.093 131.815  86.462  1.00  0.00     0.228 C 
ATOM     12  C   UNL     1     106.834 132.703  86.602  1.00  0.00     0.281 C 
ATOM     13  O   UNL     1     105.726 132.509  86.129  1.00  0.00    -0.269 OA
ATOM     14  N   UNL     1     107.194 133.818  87.341  1.00  0.00    -0.273 N 
ENDROOT
BRANCH   1  15
ATOM     15  C   UNL     1     105.044 134.827  88.221  1.00  0.00     0.038 C 
BRANCH  15  16
ATOM     16  C   UNL     1     103.690 135.063  87.513  1.00  0.00    -0.015 C 
ATOM     17  C   UNL     1     102.727 133.888  87.656  1.00  0.00     0.007 C 
ATOM     18  C   UNL     1     102.998 136.367  87.903  1.00  0.00     0.007 C 
ENDBRANCH  15  16
ENDBRANCH   1  15
BRANCH   9  19
ATOM     19  O   UNL     1     108.994 133.620  88.714  1.00  0.00    -0.347 OA
ATOM     20  H   UNL     1     109.564 134.355  88.993  1.00  0.00     0.216 HD
ENDBRANCH   9  19
BRANCH  11  21
ATOM     21  N   UNL     1     108.411 130.981  87.600  1.00  0.00    -0.319 N 
ATOM     22  C   UNL     1     107.527 130.165  88.260  1.00  0.00     0.230 C 
ATOM     23  O   UNL     1     106.345 130.062  87.953  1.00  0.00    -0.274 OA
ATOM     24  H   UNL     1     109.247 131.262  88.098  1.00  0.00     0.166 HD
BRANCH  22  25
ATOM     25  C   UNL     1     108.123 129.385  89.440  1.00  0.00     0.115 C 
ATOM     26  C   UNL     1     107.152 128.317  89.885  1.00  0.00    -0.007 C 
ATOM     27  C   UNL     1     108.493 130.360  90.577  1.00  0.00     0.102 C 
ATOM     28  C   UNL     1     106.794 128.165  91.175  1.00  0.00    -0.026 C 
ATOM     29  N   UNL     1     108.710 129.711  91.886  1.00  0.00    -0.298 NA
ATOM     30  C   UNL     1     105.702 127.239  91.561  1.00  0.00    -0.011 A 
ATOM     31  C   UNL     1     107.466 128.998  92.311  1.00  0.00     0.091 C 
ATOM     32  C   UNL     1     104.732 126.649  90.739  1.00  0.00     0.009 A 
ATOM     33  C   UNL     1     105.616 126.976  92.937  1.00  0.00     0.011 A 
ATOM     34  C   UNL     1     107.647 128.243  93.681  1.00  0.00     0.063 C 
ATOM     35  C   UNL     1     103.729 125.832  91.279  1.00  0.00     0.003 A 
ATOM     36  C   UNL     1     106.450 127.414  93.993  1.00  0.00    -0.005 A 
ATOM     37  C   UNL     1     104.615 126.174  93.465  1.00  0.00     0.047 A 
ATOM     38  C   UNL     1     103.646 125.578  92.656  1.00  0.00     0.027 A 
ATOM     39  C   UNL     1     105.936 126.883  95.148  1.00  0.00     0.086 A 
ATOM     40  N   UNL     1     104.829 126.141  94.827  1.00  0.00    -0.349 N 
ATOM     41  C   UNL     1     109.902 128.861  91.856  1.00  0.00     0.106 C 
ATOM     42  Br  UNL     1     106.624 127.090  96.903  1.00  0.00    -0.031 Br
ATOM     43  H   UNL     1     104.265 125.631  95.492  1.00  0.00     0.167 HD
ENDBRANCH  22  25
ENDBRANCH  11  21
BRANCH  11  44
ATOM     44  C   UNL     1     108.252 131.152  85.070  1.00  0.00     0.046 C 
ATOM     45  C   UNL     1     108.188 132.102  83.875  1.00  0.00     0.013 C 
ATOM     46  C   UNL     1     107.244 130.011  84.852  1.00  0.00     0.013 C 
ENDBRANCH  11  44
TORSDOF 6
ENDMDL
