MODEL 1
REMARK VINA RESULT:    -5.724      0.000      0.000
REMARK INTER + INTRA:          -6.978
REMARK INTER:                  -6.896
REMARK INTRA:                  -0.083
REMARK UNBOUND:                -0.083
REMARK SMILES NCCc1ccc(O)c(O)c1
REMARK SMILES IDX 3 1 4 2 5 3 6 4 7 5 11 6 9 7 8 8 10 10 2 12 1 13
REMARK H PARENT 8 9 10 11 1 14 1 15
ROOT
ATOM      1  C   UNL     1     114.098 125.297  95.838  1.00  0.00     0.050 C 
ENDROOT
BRANCH   1   2
ATOM      2  C   UNL     1     114.600 126.291  96.856  1.00  0.00    -0.043 A 
ATOM      3  C   UNL     1     114.264 127.652  96.752  1.00  0.00     0.008 A 
ATOM      4  C   UNL     1     114.713 128.575  97.703  1.00  0.00     0.050 A 
ATOM      5  C   UNL     1     115.496 128.131  98.761  1.00  0.00     0.157 A 
ATOM      6  C   UNL     1     115.388 125.861  97.933  1.00  0.00     0.054 A 
ATOM      7  C   UNL     1     115.828 126.784  98.872  1.00  0.00     0.157 A 
BRANCH   5   8
ATOM      8  O   UNL     1     115.965 128.984  99.722  1.00  0.00    -0.504 OA
ATOM      9  H   UNL     1     116.509 129.661  99.283  1.00  0.00     0.293 HD
ENDBRANCH   5   8
BRANCH   7  10
ATOM     10  O   UNL     1     116.597 126.356  99.918  1.00  0.00    -0.504 OA
ATOM     11  H   UNL     1     116.923 127.179 100.332  1.00  0.00     0.293 HD
ENDBRANCH   7  10
ENDBRANCH   1   2
BRANCH   1  12
ATOM     12  C   UNL     1     112.568 125.200  95.847  1.00  0.00     0.082 C 
BRANCH  12  13
ATOM     13  N   UNL     1     112.118 124.011  96.571  1.00  0.00    -0.330 NA
ATOM     14  H   UNL     1     111.500 123.461  95.976  1.00  0.00     0.118 HD
ATOM     15  H   UNL     1     111.558 124.301  97.372  1.00  0.00     0.118 HD
ENDBRANCH  12  13
ENDBRANCH   1  12
TORSDOF 5
ENDMDL
MODEL 2
REMARK VINA RESULT:    -5.722      1.895      2.776
REMARK INTER + INTRA:          -6.975
REMARK INTER:                  -6.899
REMARK INTRA:                  -0.076
REMARK UNBOUND:                -0.083
REMARK SMILES NCCc1ccc(O)c(O)c1
REMARK SMILES IDX 3 1 4 2 5 3 6 4 7 5 11 6 9 7 8 8 10 10 2 12 1 13
REMARK H PARENT 8 9 10 11 1 14 1 15
ROOT
ATOM      1  C   UNL     1     113.742 126.697  98.359  1.00  0.00     0.050 C 
ENDROOT
BRANCH   1   2
ATOM      2  C   UNL     1     114.349 127.979  97.843  1.00  0.00    -0.043 A 
ATOM      3  C   UNL     1     113.944 128.516  96.608  1.00  0.00     0.008 A 
ATOM      4  C   UNL     1     114.492 129.713  96.134  1.00  0.00     0.050 A 
ATOM      5  C   UNL     1     115.444 130.373  96.900  1.00  0.00     0.157 A 
ATOM      6  C   UNL     1     115.308 128.662  98.605  1.00  0.00     0.054 A 
ATOM      7  C   UNL     1     115.845 129.849  98.126  1.00  0.00     0.157 A 
BRANCH   5   8
ATOM      8  O   UNL     1     116.016 131.546  96.492  1.00  0.00    -0.504 OA
ATOM      9  H   UNL     1     116.214 132.075  97.284  1.00  0.00     0.293 HD
ENDBRANCH   5   8
BRANCH   7  10
ATOM     10  O   UNL     1     116.780 130.507  98.874  1.00  0.00    -0.504 OA
ATOM     11  H   UNL     1     116.402 130.524  99.775  1.00  0.00     0.293 HD
ENDBRANCH   7  10
ENDBRANCH   1   2
BRANCH   1  12
ATOM     12  C   UNL     1     113.939 125.541  97.372  1.00  0.00     0.082 C 
BRANCH  12  13
ATOM     13  N   UNL     1     112.698 124.788  97.186  1.00  0.00    -0.330 NA
ATOM     14  H   UNL     1     112.731 123.931  97.736  1.00  0.00     0.118 HD
ATOM     15  H   UNL     1     112.627 124.498  96.212  1.00  0.00     0.118 HD
ENDBRANCH  12  13
ENDBRANCH   1  12
TORSDOF 5
ENDMDL
MODEL 3
REMARK VINA RESULT:    -5.555      2.789      4.019
REMARK INTER + INTRA:          -6.775
REMARK INTER:                  -6.682
REMARK INTRA:                  -0.093
REMARK UNBOUND:                -0.083
REMARK SMILES NCCc1ccc(O)c(O)c1
REMARK SMILES IDX 3 1 4 2 5 3 6 4 7 5 11 6 9 7 8 8 10 10 2 12 1 13
REMARK H PARENT 8 9 10 11 1 14 1 15
ROOT
ATOM      1  C   UNL     1     114.157 129.723  97.432  1.00  0.00     0.050 C 
ENDROOT
BRANCH   1   2
ATOM      2  C   UNL     1     114.733 128.341  97.626  1.00  0.00    -0.043 A 
ATOM      3  C   UNL     1     114.522 127.337  96.665  1.00  0.00     0.008 A 
ATOM      4  C   UNL     1     115.067 126.060  96.833  1.00  0.00     0.050 A 
ATOM      5  C   UNL     1     115.828 125.791  97.964  1.00  0.00     0.157 A 
ATOM      6  C   UNL     1     115.507 128.052  98.759  1.00  0.00     0.054 A 
ATOM      7  C   UNL     1     116.045 126.783  98.917  1.00  0.00     0.157 A 
BRANCH   5   8
ATOM      8  O   UNL     1     116.388 124.563  98.184  1.00  0.00    -0.504 OA
ATOM      9  H   UNL     1     117.345 124.688  98.312  1.00  0.00     0.293 HD
ENDBRANCH   5   8
BRANCH   7  10
ATOM     10  O   UNL     1     116.797 126.509 100.024  1.00  0.00    -0.504 OA
ATOM     11  H   UNL     1     116.881 125.536 100.026  1.00  0.00     0.293 HD
ENDBRANCH   7  10
ENDBRANCH   1   2
BRANCH   1  12
ATOM     12  C   UNL     1     115.167 130.814  97.804  1.00  0.00     0.082 C 
BRANCH  12  13
ATOM     13  N   UNL     1     115.867 131.313  96.621  1.00  0.00    -0.330 NA
ATOM     14  H   UNL     1     116.701 131.824  96.906  1.00  0.00     0.118 HD
ATOM     15  H   UNL     1     115.272 131.986  96.140  1.00  0.00     0.118 HD
ENDBRANCH  12  13
ENDBRANCH   1  12
TORSDOF 5
ENDMDL
MODEL 4
REMARK VINA RESULT:    -5.546      3.109      4.209
REMARK INTER + INTRA:          -6.764
REMARK INTER:                  -6.716
REMARK INTRA:                  -0.048
REMARK UNBOUND:                -0.083
REMARK SMILES NCCc1ccc(O)c(O)c1
REMARK SMILES IDX 3 1 4 2 5 3 6 4 7 5 11 6 9 7 8 8 10 10 2 12 1 13
REMARK H PARENT 8 9 10 11 1 14 1 15
ROOT
ATOM      1  C   UNL     1     115.742 130.268  97.281  1.00  0.00     0.050 C 
ENDROOT
BRANCH   1   2
ATOM      2  C   UNL     1     114.956 129.044  97.685  1.00  0.00    -0.043 A 
ATOM      3  C   UNL     1     113.865 128.609  96.915  1.00  0.00     0.008 A 
ATOM      4  C   UNL     1     113.144 127.465  97.276  1.00  0.00     0.050 A 
ATOM      5  C   UNL     1     113.522 126.757  98.409  1.00  0.00     0.157 A 
ATOM      6  C   UNL     1     115.325 128.314  98.824  1.00  0.00     0.054 A 
ATOM      7  C   UNL     1     114.605 127.180  99.174  1.00  0.00     0.157 A 
BRANCH   5   8
ATOM      8  O   UNL     1     112.858 125.632  98.814  1.00  0.00    -0.504 OA
ATOM      9  H   UNL     1     113.055 125.489  99.757  1.00  0.00     0.293 HD
ENDBRANCH   5   8
BRANCH   7  10
ATOM     10  O   UNL     1     114.971 126.475 100.286  1.00  0.00    -0.504 OA
ATOM     11  H   UNL     1     115.893 126.203 100.109  1.00  0.00     0.293 HD
ENDBRANCH   7  10
ENDBRANCH   1   2
BRANCH   1  12
ATOM     12  C   UNL     1     114.845 131.506  97.173  1.00  0.00     0.082 C 
BRANCH  12  13
ATOM     13  N   UNL     1     114.068 131.704  98.396  1.00  0.00    -0.330 NA
ATOM     14  H   UNL     1     114.527 131.234  99.175  1.00  0.00     0.118 HD
ATOM     15  H   UNL     1     113.159 131.255  98.290  1.00  0.00     0.118 HD
ENDBRANCH  12  13
ENDBRANCH   1  12
TORSDOF 5
ENDMDL
MODEL 5
REMARK VINA RESULT:    -5.386      2.232      3.106
REMARK INTER + INTRA:          -6.570
REMARK INTER:                  -6.479
REMARK INTRA:                  -0.092
REMARK UNBOUND:                -0.083
REMARK SMILES NCCc1ccc(O)c(O)c1
REMARK SMILES IDX 3 1 4 2 5 3 6 4 7 5 11 6 9 7 8 8 10 10 2 12 1 13
REMARK H PARENT 8 9 10 11 1 14 1 15
ROOT
ATOM      1  C   UNL     1     112.620 127.869  96.278  1.00  0.00     0.050 C 
ENDROOT
BRANCH   1   2
ATOM      2  C   UNL     1     113.779 128.552  96.963  1.00  0.00    -0.043 A 
ATOM      3  C   UNL     1     114.343 128.005  98.129  1.00  0.00     0.008 A 
ATOM      4  C   UNL     1     115.428 128.624  98.758  1.00  0.00     0.050 A 
ATOM      5  C   UNL     1     115.950 129.792  98.215  1.00  0.00     0.157 A 
ATOM      6  C   UNL     1     114.322 129.729  96.427  1.00  0.00     0.054 A 
ATOM      7  C   UNL     1     115.399 130.336  97.058  1.00  0.00     0.157 A 
BRANCH   5   8
ATOM      8  O   UNL     1     117.009 130.444  98.783  1.00  0.00    -0.504 OA
ATOM      9  H   UNL     1     117.175 130.046  99.655  1.00  0.00     0.293 HD
ENDBRANCH   5   8
BRANCH   7  10
ATOM     10  O   UNL     1     115.921 131.483  96.530  1.00  0.00    -0.504 OA
ATOM     11  H   UNL     1     116.886 131.386  96.645  1.00  0.00     0.293 HD
ENDBRANCH   7  10
ENDBRANCH   1   2
BRANCH   1  12
ATOM     12  C   UNL     1     111.886 126.914  97.225  1.00  0.00     0.082 C 
BRANCH  12  13
ATOM     13  N   UNL     1     111.997 125.528  96.769  1.00  0.00    -0.330 NA
ATOM     14  H   UNL     1     111.307 125.351  96.040  1.00  0.00     0.118 HD
ATOM     15  H   UNL     1     111.763 124.904  97.540  1.00  0.00     0.118 HD
ENDBRANCH  12  13
ENDBRANCH   1  12
TORSDOF 5
ENDMDL
MODEL 6
REMARK VINA RESULT:    -5.381      2.941      3.636
REMARK INTER + INTRA:          -6.565
REMARK INTER:                  -6.453
REMARK INTRA:                  -0.111
REMARK UNBOUND:                -0.083
REMARK SMILES NCCc1ccc(O)c(O)c1
REMARK SMILES IDX 3 1 4 2 5 3 6 4 7 5 11 6 9 7 8 8 10 10 2 12 1 13
REMARK H PARENT 8 9 10 11 1 14 1 15
ROOT
ATOM      1  C   UNL     1     113.456 129.628  95.864  1.00  0.00     0.050 C 
ENDROOT
BRANCH   1   2
ATOM      2  C   UNL     1     113.911 128.780  97.027  1.00  0.00    -0.043 A 
ATOM      3  C   UNL     1     115.069 129.119  97.749  1.00  0.00     0.008 A 
ATOM      4  C   UNL     1     115.485 128.346  98.838  1.00  0.00     0.050 A 
ATOM      5  C   UNL     1     114.737 127.234  99.205  1.00  0.00     0.157 A 
ATOM      6  C   UNL     1     113.167 127.656  97.415  1.00  0.00     0.054 A 
ATOM      7  C   UNL     1     113.587 126.896  98.497  1.00  0.00     0.157 A 
BRANCH   5   8
ATOM      8  O   UNL     1     115.092 126.440 100.260  1.00  0.00    -0.504 OA
ATOM      9  H   UNL     1     115.828 126.872 100.728  1.00  0.00     0.293 HD
ENDBRANCH   5   8
BRANCH   7  10
ATOM     10  O   UNL     1     112.857 125.803  98.868  1.00  0.00    -0.504 OA
ATOM     11  H   UNL     1     112.135 126.167  99.417  1.00  0.00     0.293 HD
ENDBRANCH   7  10
ENDBRANCH   1   2
BRANCH   1  12
ATOM     12  C   UNL     1     111.998 130.071  96.023  1.00  0.00     0.082 C 
BRANCH  12  13
ATOM     13  N   UNL     1     111.884 131.184  96.964  1.00  0.00    -0.330 NA
ATOM     14  H   UNL     1     112.813 131.506  97.231  1.00  0.00     0.118 HD
ATOM     15  H   UNL     1     111.442 130.853  97.821  1.00  0.00     0.118 HD
ENDBRANCH  12  13
ENDBRANCH   1  12
TORSDOF 5
ENDMDL
MODEL 7
REMARK VINA RESULT:    -5.312      1.359      1.803
REMARK INTER + INTRA:          -6.482
REMARK INTER:                  -6.408
REMARK INTRA:                  -0.075
REMARK UNBOUND:                -0.083
REMARK SMILES NCCc1ccc(O)c(O)c1
REMARK SMILES IDX 3 1 4 2 5 3 6 4 7 5 11 6 9 7 8 8 10 10 2 12 1 13
REMARK H PARENT 8 9 10 11 1 14 1 15
ROOT
ATOM      1  C   UNL     1     112.571 126.980  96.580  1.00  0.00     0.050 C 
ENDROOT
BRANCH   1   2
ATOM      2  C   UNL     1     113.654 127.922  97.048  1.00  0.00    -0.043 A 
ATOM      3  C   UNL     1     114.000 129.049  96.282  1.00  0.00     0.008 A 
ATOM      4  C   UNL     1     114.991 129.935  96.719  1.00  0.00     0.050 A 
ATOM      5  C   UNL     1     115.633 129.691  97.927  1.00  0.00     0.157 A 
ATOM      6  C   UNL     1     114.310 127.695  98.266  1.00  0.00     0.054 A 
ATOM      7  C   UNL     1     115.291 128.579  98.692  1.00  0.00     0.157 A 
BRANCH   5   8
ATOM      8  O   UNL     1     116.609 130.519  98.408  1.00  0.00    -0.504 OA
ATOM      9  H   UNL     1     117.283 129.968  98.842  1.00  0.00     0.293 HD
ENDBRANCH   5   8
BRANCH   7  10
ATOM     10  O   UNL     1     115.926 128.349  99.880  1.00  0.00    -0.504 OA
ATOM     11  H   UNL     1     116.703 128.941  99.858  1.00  0.00     0.293 HD
ENDBRANCH   7  10
ENDBRANCH   1   2
BRANCH   1  12
ATOM     12  C   UNL     1     113.131 125.590  96.258  1.00  0.00     0.082 C 
BRANCH  12  13
ATOM     13  N   UNL     1     112.344 124.540  96.905  1.00  0.00    -0.330 NA
ATOM     14  H   UNL     1     111.491 124.940  97.295  1.00  0.00     0.118 HD
ATOM     15  H   UNL     1     112.870 124.168  97.695  1.00  0.00     0.118 HD
ENDBRANCH  12  13
ENDBRANCH   1  12
TORSDOF 5
ENDMDL
MODEL 8
REMARK VINA RESULT:    -5.213      3.725      4.906
REMARK INTER + INTRA:          -6.363
REMARK INTER:                  -6.303
REMARK INTRA:                  -0.060
REMARK UNBOUND:                -0.083
REMARK SMILES NCCc1ccc(O)c(O)c1
REMARK SMILES IDX 3 1 4 2 5 3 6 4 7 5 11 6 9 7 8 8 10 10 2 12 1 13
REMARK H PARENT 8 9 10 11 1 14 1 15
ROOT
ATOM      1  C   UNL     1     114.795 129.443  96.884  1.00  0.00     0.050 C 
ENDROOT
BRANCH   1   2
ATOM      2  C   UNL     1     114.140 128.084  96.834  1.00  0.00    -0.043 A 
ATOM      3  C   UNL     1     114.915 126.922  96.672  1.00  0.00     0.008 A 
ATOM      4  C   UNL     1     114.313 125.659  96.642  1.00  0.00     0.050 A 
ATOM      5  C   UNL     1     112.934 125.562  96.777  1.00  0.00     0.157 A 
ATOM      6  C   UNL     1     112.750 127.966  96.974  1.00  0.00     0.054 A 
ATOM      7  C   UNL     1     112.162 126.709  96.943  1.00  0.00     0.157 A 
BRANCH   5   8
ATOM      8  O   UNL     1     112.288 124.357  96.757  1.00  0.00    -0.504 OA
ATOM      9  H   UNL     1     112.157 124.103  95.827  1.00  0.00     0.293 HD
ENDBRANCH   5   8
BRANCH   7  10
ATOM     10  O   UNL     1     110.807 126.603  97.079  1.00  0.00    -0.504 OA
ATOM     11  H   UNL     1     110.566 125.836  96.523  1.00  0.00     0.293 HD
ENDBRANCH   7  10
ENDBRANCH   1   2
BRANCH   1  12
ATOM     12  C   UNL     1     115.589 129.640  98.180  1.00  0.00     0.082 C 
BRANCH  12  13
ATOM     13  N   UNL     1     116.741 130.517  97.966  1.00  0.00    -0.330 NA
ATOM     14  H   UNL     1     117.212 130.688  98.854  1.00  0.00     0.118 HD
ATOM     15  H   UNL     1     116.413 131.425  97.639  1.00  0.00     0.118 HD
ENDBRANCH  12  13
ENDBRANCH   1  12
TORSDOF 5
ENDMDL
MODEL 9
REMARK VINA RESULT:    -5.133      2.703      3.509
REMARK INTER + INTRA:          -6.266
REMARK INTER:                  -6.195
REMARK INTRA:                  -0.071
REMARK UNBOUND:                -0.083
REMARK SMILES NCCc1ccc(O)c(O)c1
REMARK SMILES IDX 3 1 4 2 5 3 6 4 7 5 11 6 9 7 8 8 10 10 2 12 1 13
REMARK H PARENT 8 9 10 11 1 14 1 15
ROOT
ATOM      1  C   UNL     1     112.878 129.136  95.915  1.00  0.00     0.050 C 
ENDROOT
BRANCH   1   2
ATOM      2  C   UNL     1     113.484 128.420  97.099  1.00  0.00    -0.043 A 
ATOM      3  C   UNL     1     113.051 127.130  97.451  1.00  0.00     0.008 A 
ATOM      4  C   UNL     1     113.621 126.456  98.537  1.00  0.00     0.050 A 
ATOM      5  C   UNL     1     114.627 127.076  99.266  1.00  0.00     0.157 A 
ATOM      6  C   UNL     1     114.504 129.028  97.845  1.00  0.00     0.054 A 
ATOM      7  C   UNL     1     115.064 128.352  98.919  1.00  0.00     0.157 A 
BRANCH   5   8
ATOM      8  O   UNL     1     115.224 126.469 100.337  1.00  0.00    -0.504 OA
ATOM      9  H   UNL     1     115.757 127.137 100.802  1.00  0.00     0.293 HD
ENDBRANCH   5   8
BRANCH   7  10
ATOM     10  O   UNL     1     116.056 128.951  99.641  1.00  0.00    -0.504 OA
ATOM     11  H   UNL     1     116.611 129.395  98.970  1.00  0.00     0.293 HD
ENDBRANCH   7  10
ENDBRANCH   1   2
BRANCH   1  12
ATOM     12  C   UNL     1     111.574 129.848  96.291  1.00  0.00     0.082 C 
BRANCH  12  13
ATOM     13  N   UNL     1     111.836 131.184  96.826  1.00  0.00    -0.330 NA
ATOM     14  H   UNL     1     112.219 131.109  97.767  1.00  0.00     0.118 HD
ATOM     15  H   UNL     1     110.954 131.686  96.917  1.00  0.00     0.118 HD
ENDBRANCH  12  13
ENDBRANCH   1  12
TORSDOF 5
ENDMDL
