MODEL 1
REMARK VINA RESULT:    -9.211      0.000      0.000
REMARK INTER + INTRA:         -14.051
REMARK INTER:                 -12.980
REMARK INTRA:                  -1.071
REMARK UNBOUND:                -1.071
REMARK SMILES CCC(=O)N(c1ccccc1)C1CCN(CCc2ccccc2)CC1
REMARK SMILES IDX 12 1 13 2 14 3 15 4 24 5 25 6 5 7 3 8 4 9 2 10 1 11 6 12
REMARK SMILES IDX 7 13 11 14 8 15 10 16 9 17 16 18 17 19 18 20 19 21 23 22
REMARK SMILES IDX 20 23 22 24 21 25
REMARK H PARENT
ROOT
ATOM      1  C   UNL     1      -7.412   1.231   8.378  1.00  0.00     0.093 C 
ATOM      2  C   UNL     1      -8.298   1.582   9.591  1.00  0.00     0.041 C 
ATOM      3  C   UNL     1      -7.473   1.869  10.843  1.00  0.00     0.086 C 
ATOM      4  N   UNL     1      -6.486   2.937  10.657  1.00  0.00    -0.303 NA
ATOM      5  C   UNL     1      -6.110   3.205   9.269  1.00  0.00     0.086 C 
ATOM      6  C   UNL     1      -6.030   1.910   8.466  1.00  0.00     0.041 C 
ENDROOT
BRANCH   1   7
ATOM      7  N   UNL     1      -7.320  -0.213   8.030  1.00  0.00    -0.309 N 
BRANCH   7   8
ATOM      8  C   UNL     1      -8.303  -1.054   8.576  1.00  0.00     0.226 C 
ATOM      9  O   UNL     1      -9.489  -0.999   8.235  1.00  0.00    -0.275 OA
BRANCH   8  10
ATOM     10  C   UNL     1      -7.899  -1.994   9.704  1.00  0.00     0.097 C 
ATOM     11  C   UNL     1      -6.588  -1.563  10.335  1.00  0.00     0.014 C 
ENDBRANCH   8  10
ENDBRANCH   7   8
BRANCH   7  12
ATOM     12  C   UNL     1      -6.668  -0.561   6.814  1.00  0.00     0.044 A 
ATOM     13  C   UNL     1      -7.075  -0.003   5.597  1.00  0.00     0.026 A 
ATOM     14  C   UNL     1      -5.624  -1.490   6.832  1.00  0.00     0.026 A 
ATOM     15  C   UNL     1      -6.427  -0.356   4.412  1.00  0.00     0.002 A 
ATOM     16  C   UNL     1      -4.979  -1.845   5.646  1.00  0.00     0.002 A 
ATOM     17  C   UNL     1      -5.378  -1.275   4.437  1.00  0.00     0.000 A 
ENDBRANCH   7  12
ENDBRANCH   1   7
BRANCH   4  18
ATOM     18  C   UNL     1      -6.737   4.149  11.448  1.00  0.00     0.089 C 
BRANCH  18  19
ATOM     19  C   UNL     1      -5.600   4.595  12.383  1.00  0.00     0.051 C 
BRANCH  19  20
ATOM     20  C   UNL     1      -5.769   4.027  13.773  1.00  0.00    -0.047 A 
ATOM     21  C   UNL     1      -4.651   3.783  14.582  1.00  0.00     0.004 A 
ATOM     22  C   UNL     1      -7.048   3.765  14.283  1.00  0.00     0.004 A 
ATOM     23  C   UNL     1      -4.810   3.275  15.871  1.00  0.00     0.000 A 
ATOM     24  C   UNL     1      -7.204   3.257  15.573  1.00  0.00     0.000 A 
ATOM     25  C   UNL     1      -6.085   3.012  16.367  1.00  0.00     0.000 A 
ENDBRANCH  19  20
ENDBRANCH  18  19
ENDBRANCH   4  18
TORSDOF 7
ENDMDL
MODEL 2
REMARK VINA RESULT:    -9.163      0.820      1.446
REMARK INTER + INTRA:         -13.983
REMARK INTER:                 -12.953
REMARK INTRA:                  -1.031
REMARK UNBOUND:                -1.071
REMARK SMILES CCC(=O)N(c1ccccc1)C1CCN(CCc2ccccc2)CC1
REMARK SMILES IDX 12 1 13 2 14 3 15 4 24 5 25 6 5 7 3 8 4 9 2 10 1 11 6 12
REMARK SMILES IDX 7 13 11 14 8 15 10 16 9 17 16 18 17 19 18 20 19 21 23 22
REMARK SMILES IDX 20 23 22 24 21 25
REMARK H PARENT
ROOT
ATOM      1  C   UNL     1      -7.492   1.160   8.719  1.00  0.00     0.093 C 
ATOM      2  C   UNL     1      -8.176   1.402  10.080  1.00  0.00     0.041 C 
ATOM      3  C   UNL     1      -7.180   1.817  11.160  1.00  0.00     0.086 C 
ATOM      4  N   UNL     1      -6.401   3.008  10.807  1.00  0.00    -0.303 NA
ATOM      5  C   UNL     1      -6.330   3.306   9.377  1.00  0.00     0.086 C 
ATOM      6  C   UNL     1      -6.224   2.024   8.556  1.00  0.00     0.041 C 
ENDROOT
BRANCH   1   7
ATOM      7  N   UNL     1      -7.269  -0.262   8.343  1.00  0.00    -0.309 N 
BRANCH   7   8
ATOM      8  C   UNL     1      -8.067  -1.216   8.993  1.00  0.00     0.226 C 
ATOM      9  O   UNL     1      -7.633  -1.944   9.891  1.00  0.00    -0.275 OA
BRANCH   8  10
ATOM     10  C   UNL     1      -9.491  -1.424   8.494  1.00  0.00     0.097 C 
ATOM     11  C   UNL     1     -10.466  -1.547   9.651  1.00  0.00     0.014 C 
ENDBRANCH   8  10
ENDBRANCH   7   8
BRANCH   7  12
ATOM     12  C   UNL     1      -6.736  -0.528   7.050  1.00  0.00     0.044 A 
ATOM     13  C   UNL     1      -7.222   0.141   5.921  1.00  0.00     0.026 A 
ATOM     14  C   UNL     1      -5.731  -1.489   6.902  1.00  0.00     0.026 A 
ATOM     15  C   UNL     1      -6.691  -0.133   4.660  1.00  0.00     0.002 A 
ATOM     16  C   UNL     1      -5.203  -1.764   5.640  1.00  0.00     0.002 A 
ATOM     17  C   UNL     1      -5.680  -1.084   4.520  1.00  0.00     0.000 A 
ENDBRANCH   7  12
ENDBRANCH   1   7
BRANCH   4  18
ATOM     18  C   UNL     1      -6.664   4.184  11.646  1.00  0.00     0.089 C 
BRANCH  18  19
ATOM     19  C   UNL     1      -5.539   4.592  12.613  1.00  0.00     0.051 C 
BRANCH  19  20
ATOM     20  C   UNL     1      -5.760   4.021  13.994  1.00  0.00    -0.047 A 
ATOM     21  C   UNL     1      -7.055   3.733  14.445  1.00  0.00     0.004 A 
ATOM     22  C   UNL     1      -4.670   3.743  14.831  1.00  0.00     0.004 A 
ATOM     23  C   UNL     1      -7.256   3.188  15.713  1.00  0.00     0.000 A 
ATOM     24  C   UNL     1      -4.875   3.198  16.099  1.00  0.00     0.000 A 
ATOM     25  C   UNL     1      -6.167   2.921  16.541  1.00  0.00     0.000 A 
ENDBRANCH  19  20
ENDBRANCH  18  19
ENDBRANCH   4  18
TORSDOF 7
ENDMDL
MODEL 3
REMARK VINA RESULT:    -8.905      1.106      1.971
REMARK INTER + INTRA:         -13.620
REMARK INTER:                 -12.989
REMARK INTRA:                  -0.630
REMARK UNBOUND:                -1.071
REMARK SMILES CCC(=O)N(c1ccccc1)C1CCN(CCc2ccccc2)CC1
REMARK SMILES IDX 12 1 13 2 14 3 15 4 24 5 25 6 5 7 3 8 4 9 2 10 1 11 6 12
REMARK SMILES IDX 7 13 11 14 8 15 10 16 9 17 16 18 17 19 18 20 19 21 23 22
REMARK SMILES IDX 20 23 22 24 21 25
REMARK H PARENT
ROOT
ATOM      1  C   UNL     1      -6.040   0.628   9.017  1.00  0.00     0.093 C 
ATOM      2  C   UNL     1      -6.934   1.876   8.877  1.00  0.00     0.041 C 
ATOM      3  C   UNL     1      -7.740   2.152  10.144  1.00  0.00     0.086 C 
ATOM      4  N   UNL     1      -6.909   2.301  11.342  1.00  0.00    -0.303 NA
ATOM      5  C   UNL     1      -5.575   1.706  11.255  1.00  0.00     0.086 C 
ATOM      6  C   UNL     1      -5.613   0.392  10.481  1.00  0.00     0.041 C 
ENDROOT
BRANCH   1   7
ATOM      7  N   UNL     1      -6.537  -0.610   8.358  1.00  0.00    -0.309 N 
BRANCH   7   8
ATOM      8  C   UNL     1      -7.683  -1.200   8.913  1.00  0.00     0.226 C 
ATOM      9  O   UNL     1      -7.627  -2.058   9.799  1.00  0.00    -0.275 OA
BRANCH   8  10
ATOM     10  C   UNL     1      -9.038  -0.836   8.320  1.00  0.00     0.097 C 
ATOM     11  C   UNL     1     -10.172  -1.428   9.136  1.00  0.00     0.014 C 
ENDBRANCH   8  10
ENDBRANCH   7   8
BRANCH   7  12
ATOM     12  C   UNL     1      -6.221  -0.801   6.983  1.00  0.00     0.044 A 
ATOM     13  C   UNL     1      -5.268  -1.746   6.590  1.00  0.00     0.026 A 
ATOM     14  C   UNL     1      -6.853  -0.015   6.015  1.00  0.00     0.026 A 
ATOM     15  C   UNL     1      -4.968  -1.920   5.238  1.00  0.00     0.002 A 
ATOM     16  C   UNL     1      -6.550  -0.188   4.663  1.00  0.00     0.002 A 
ATOM     17  C   UNL     1      -5.610  -1.142   4.275  1.00  0.00     0.000 A 
ENDBRANCH   7  12
ENDBRANCH   1   7
BRANCH   4  18
ATOM     18  C   UNL     1      -6.922   3.644  11.935  1.00  0.00     0.089 C 
BRANCH  18  19
ATOM     19  C   UNL     1      -5.703   4.016  12.798  1.00  0.00     0.051 C 
BRANCH  19  20
ATOM     20  C   UNL     1      -5.912   3.641  14.246  1.00  0.00    -0.047 A 
ATOM     21  C   UNL     1      -7.205   3.438  14.748  1.00  0.00     0.004 A 
ATOM     22  C   UNL     1      -4.815   3.464  15.100  1.00  0.00     0.004 A 
ATOM     23  C   UNL     1      -7.396   3.074  16.080  1.00  0.00     0.000 A 
ATOM     24  C   UNL     1      -5.009   3.100  16.433  1.00  0.00     0.000 A 
ATOM     25  C   UNL     1      -6.299   2.906  16.923  1.00  0.00     0.000 A 
ENDBRANCH  19  20
ENDBRANCH  18  19
ENDBRANCH   4  18
TORSDOF 7
ENDMDL
MODEL 4
REMARK VINA RESULT:    -8.674      3.104      4.692
REMARK INTER + INTRA:         -13.294
REMARK INTER:                 -12.235
REMARK INTRA:                  -1.059
REMARK UNBOUND:                -1.071
REMARK SMILES CCC(=O)N(c1ccccc1)C1CCN(CCc2ccccc2)CC1
REMARK SMILES IDX 12 1 13 2 14 3 15 4 24 5 25 6 5 7 3 8 4 9 2 10 1 11 6 12
REMARK SMILES IDX 7 13 11 14 8 15 10 16 9 17 16 18 17 19 18 20 19 21 23 22
REMARK SMILES IDX 20 23 22 24 21 25
REMARK H PARENT
ROOT
ATOM      1  C   UNL     1      -7.868  -1.655   8.892  1.00  0.00     0.093 C 
ATOM      2  C   UNL     1      -7.190  -1.705  10.277  1.00  0.00     0.041 C 
ATOM      3  C   UNL     1      -8.141  -1.296  11.398  1.00  0.00     0.086 C 
ATOM      4  N   UNL     1      -9.365  -2.099  11.446  1.00  0.00    -0.303 NA
ATOM      5  C   UNL     1      -9.710  -2.786  10.201  1.00  0.00     0.086 C 
ATOM      6  C   UNL     1      -9.385  -1.917   8.990  1.00  0.00     0.041 C 
ENDROOT
BRANCH   1   7
ATOM      7  N   UNL     1      -7.543  -0.476   8.046  1.00  0.00    -0.309 N 
BRANCH   7   8
ATOM      8  C   UNL     1      -7.501   0.769   8.694  1.00  0.00     0.226 C 
ATOM      9  O   UNL     1      -6.473   1.216   9.211  1.00  0.00    -0.275 OA
BRANCH   8  10
ATOM     10  C   UNL     1      -8.804   1.542   8.849  1.00  0.00     0.097 C 
ATOM     11  C   UNL     1      -9.047   1.925  10.298  1.00  0.00     0.014 C 
ENDBRANCH   8  10
ENDBRANCH   7   8
BRANCH   7  12
ATOM     12  C   UNL     1      -6.783  -0.698   6.863  1.00  0.00     0.044 A 
ATOM     13  C   UNL     1      -7.142  -0.089   5.655  1.00  0.00     0.026 A 
ATOM     14  C   UNL     1      -5.680  -1.556   6.902  1.00  0.00     0.026 A 
ATOM     15  C   UNL     1      -6.389  -0.319   4.503  1.00  0.00     0.002 A 
ATOM     16  C   UNL     1      -4.930  -1.788   5.748  1.00  0.00     0.002 A 
ATOM     17  C   UNL     1      -5.283  -1.166   4.549  1.00  0.00     0.000 A 
ENDBRANCH   7  12
ENDBRANCH   1   7
BRANCH   4  18
ATOM     18  C   UNL     1      -9.504  -2.938  12.643  1.00  0.00     0.089 C 
BRANCH  18  19
ATOM     19  C   UNL     1      -8.311  -2.934  13.616  1.00  0.00     0.051 C 
BRANCH  19  20
ATOM     20  C   UNL     1      -8.659  -2.254  14.918  1.00  0.00    -0.047 A 
ATOM     21  C   UNL     1      -8.260  -0.931  15.158  1.00  0.00     0.004 A 
ATOM     22  C   UNL     1      -9.410  -2.925  15.893  1.00  0.00     0.004 A 
ATOM     23  C   UNL     1      -8.598  -0.298  16.354  1.00  0.00     0.000 A 
ATOM     24  C   UNL     1      -9.746  -2.288  17.089  1.00  0.00     0.000 A 
ATOM     25  C   UNL     1      -9.340  -0.976  17.319  1.00  0.00     0.000 A 
ENDBRANCH  19  20
ENDBRANCH  18  19
ENDBRANCH   4  18
TORSDOF 7
ENDMDL
MODEL 5
REMARK VINA RESULT:    -8.615      1.296      1.782
REMARK INTER + INTRA:         -13.212
REMARK INTER:                 -12.116
REMARK INTRA:                  -1.096
REMARK UNBOUND:                -1.071
REMARK SMILES CCC(=O)N(c1ccccc1)C1CCN(CCc2ccccc2)CC1
REMARK SMILES IDX 12 1 13 2 14 3 15 4 24 5 25 6 5 7 3 8 4 9 2 10 1 11 6 12
REMARK SMILES IDX 7 13 11 14 8 15 10 16 9 17 16 18 17 19 18 20 19 21 23 22
REMARK SMILES IDX 20 23 22 24 21 25
REMARK H PARENT
ROOT
ATOM      1  C   UNL     1      -7.391   1.852   9.665  1.00  0.00     0.093 C 
ATOM      2  C   UNL     1      -7.812   1.971  11.144  1.00  0.00     0.041 C 
ATOM      3  C   UNL     1      -6.614   2.179  12.068  1.00  0.00     0.086 C 
ATOM      4  N   UNL     1      -5.803   3.347  11.714  1.00  0.00    -0.303 NA
ATOM      5  C   UNL     1      -5.948   3.815  10.335  1.00  0.00     0.086 C 
ATOM      6  C   UNL     1      -6.097   2.639   9.374  1.00  0.00     0.041 C 
ENDROOT
BRANCH   1   7
ATOM      7  N   UNL     1      -7.364   0.475   9.101  1.00  0.00    -0.309 N 
BRANCH   7   8
ATOM      8  C   UNL     1      -8.018  -0.521   9.844  1.00  0.00     0.226 C 
ATOM      9  O   UNL     1      -7.414  -1.301  10.586  1.00  0.00    -0.275 OA
BRANCH   8  10
ATOM     10  C   UNL     1      -9.516  -0.703   9.639  1.00  0.00     0.097 C 
ATOM     11  C   UNL     1      -9.815  -1.986   8.885  1.00  0.00     0.014 C 
ENDBRANCH   8  10
ENDBRANCH   7   8
BRANCH   7  12
ATOM     12  C   UNL     1      -7.209   0.339   7.693  1.00  0.00     0.044 A 
ATOM     13  C   UNL     1      -8.026   1.053   6.809  1.00  0.00     0.026 A 
ATOM     14  C   UNL     1      -6.245  -0.537   7.186  1.00  0.00     0.026 A 
ATOM     15  C   UNL     1      -7.863   0.907   5.430  1.00  0.00     0.002 A 
ATOM     16  C   UNL     1      -6.086  -0.684   5.807  1.00  0.00     0.002 A 
ATOM     17  C   UNL     1      -6.892   0.041   4.929  1.00  0.00     0.000 A 
ENDBRANCH   7  12
ENDBRANCH   1   7
BRANCH   4  18
ATOM     18  C   UNL     1      -5.814   4.427  12.710  1.00  0.00     0.089 C 
BRANCH  18  19
ATOM     19  C   UNL     1      -4.957   4.199  13.967  1.00  0.00     0.051 C 
BRANCH  19  20
ATOM     20  C   UNL     1      -5.786   3.679  15.118  1.00  0.00    -0.047 A 
ATOM     21  C   UNL     1      -5.167   3.119  16.244  1.00  0.00     0.004 A 
ATOM     22  C   UNL     1      -7.184   3.777  15.088  1.00  0.00     0.004 A 
ATOM     23  C   UNL     1      -5.933   2.656  17.314  1.00  0.00     0.000 A 
ATOM     24  C   UNL     1      -7.948   3.313  16.160  1.00  0.00     0.000 A 
ATOM     25  C   UNL     1      -7.323   2.752  17.272  1.00  0.00     0.000 A 
ENDBRANCH  19  20
ENDBRANCH  18  19
ENDBRANCH   4  18
TORSDOF 7
ENDMDL
MODEL 6
REMARK VINA RESULT:    -8.593      1.508      2.272
REMARK INTER + INTRA:         -13.179
REMARK INTER:                 -12.229
REMARK INTRA:                  -0.951
REMARK UNBOUND:                -1.071
REMARK SMILES CCC(=O)N(c1ccccc1)C1CCN(CCc2ccccc2)CC1
REMARK SMILES IDX 12 1 13 2 14 3 15 4 24 5 25 6 5 7 3 8 4 9 2 10 1 11 6 12
REMARK SMILES IDX 7 13 11 14 8 15 10 16 9 17 16 18 17 19 18 20 19 21 23 22
REMARK SMILES IDX 20 23 22 24 21 25
REMARK H PARENT
ROOT
ATOM      1  C   UNL     1      -6.882   1.583  10.007  1.00  0.00     0.093 C 
ATOM      2  C   UNL     1      -6.665   1.421  11.525  1.00  0.00     0.041 C 
ATOM      3  C   UNL     1      -5.454   2.208  12.021  1.00  0.00     0.086 C 
ATOM      4  N   UNL     1      -5.521   3.638  11.706  1.00  0.00    -0.303 NA
ATOM      5  C   UNL     1      -6.417   3.994  10.605  1.00  0.00     0.086 C 
ATOM      6  C   UNL     1      -6.365   2.945   9.499  1.00  0.00     0.041 C 
ENDROOT
BRANCH   1   7
ATOM      7  N   UNL     1      -6.435   0.447   9.156  1.00  0.00    -0.309 N 
BRANCH   7   8
ATOM      8  C   UNL     1      -6.206  -0.774   9.810  1.00  0.00     0.226 C 
ATOM      9  O   UNL     1      -5.078  -1.146  10.148  1.00  0.00    -0.275 OA
BRANCH   8  10
ATOM     10  C   UNL     1      -7.387  -1.714  10.012  1.00  0.00     0.097 C 
ATOM     11  C   UNL     1      -7.242  -2.510  11.296  1.00  0.00     0.014 C 
ENDBRANCH   8  10
ENDBRANCH   7   8
BRANCH   7  12
ATOM     12  C   UNL     1      -6.790   0.472   7.778  1.00  0.00     0.044 A 
ATOM     13  C   UNL     1      -7.889   1.215   7.333  1.00  0.00     0.026 A 
ATOM     14  C   UNL     1      -6.047  -0.276   6.860  1.00  0.00     0.026 A 
ATOM     15  C   UNL     1      -8.226   1.227   5.979  1.00  0.00     0.002 A 
ATOM     16  C   UNL     1      -6.387  -0.266   5.507  1.00  0.00     0.002 A 
ATOM     17  C   UNL     1      -7.474   0.489   5.066  1.00  0.00     0.000 A 
ENDBRANCH   7  12
ENDBRANCH   1   7
BRANCH   4  18
ATOM     18  C   UNL     1      -5.638   4.520  12.874  1.00  0.00     0.089 C 
BRANCH  18  19
ATOM     19  C   UNL     1      -4.898   4.065  14.144  1.00  0.00     0.051 C 
BRANCH  19  20
ATOM     20  C   UNL     1      -5.859   3.592  15.208  1.00  0.00    -0.047 A 
ATOM     21  C   UNL     1      -7.243   3.713  15.020  1.00  0.00     0.004 A 
ATOM     22  C   UNL     1      -5.383   2.999  16.385  1.00  0.00     0.004 A 
ATOM     23  C   UNL     1      -8.131   3.259  15.995  1.00  0.00     0.000 A 
ATOM     24  C   UNL     1      -6.273   2.546  17.360  1.00  0.00     0.000 A 
ATOM     25  C   UNL     1      -7.647   2.677  17.165  1.00  0.00     0.000 A 
ENDBRANCH  19  20
ENDBRANCH  18  19
ENDBRANCH   4  18
TORSDOF 7
ENDMDL
MODEL 7
REMARK VINA RESULT:    -8.420      2.422      8.435
REMARK INTER + INTRA:         -12.936
REMARK INTER:                 -12.000
REMARK INTRA:                  -0.937
REMARK UNBOUND:                -1.071
REMARK SMILES CCC(=O)N(c1ccccc1)C1CCN(CCc2ccccc2)CC1
REMARK SMILES IDX 12 1 13 2 14 3 15 4 24 5 25 6 5 7 3 8 4 9 2 10 1 11 6 12
REMARK SMILES IDX 7 13 11 14 8 15 10 16 9 17 16 18 17 19 18 20 19 21 23 22
REMARK SMILES IDX 20 23 22 24 21 25
REMARK H PARENT
ROOT
ATOM      1  C   UNL     1      -8.815   2.158  13.061  1.00  0.00     0.093 C 
ATOM      2  C   UNL     1      -8.893   2.690  11.615  1.00  0.00     0.041 C 
ATOM      3  C   UNL     1      -7.619   2.400  10.826  1.00  0.00     0.086 C 
ATOM      4  N   UNL     1      -7.271   0.977  10.785  1.00  0.00    -0.303 NA
ATOM      5  C   UNL     1      -7.858   0.159  11.846  1.00  0.00     0.086 C 
ATOM      6  C   UNL     1      -7.896   0.923  13.166  1.00  0.00     0.041 C 
ENDROOT
BRANCH   1   7
ATOM      7  N   UNL     1      -8.539   3.170  14.116  1.00  0.00    -0.309 N 
BRANCH   7   8
ATOM      8  C   UNL     1      -9.604   3.491  14.972  1.00  0.00     0.226 C 
ATOM      9  O   UNL     1     -10.552   2.725  15.170  1.00  0.00    -0.275 OA
BRANCH   8  10
ATOM     10  C   UNL     1      -9.632   4.880  15.596  1.00  0.00     0.097 C 
ATOM     11  C   UNL     1     -10.912   5.615  15.240  1.00  0.00     0.014 C 
ENDBRANCH   8  10
ENDBRANCH   7   8
BRANCH   7  12
ATOM     12  C   UNL     1      -7.193   3.321  14.552  1.00  0.00     0.044 A 
ATOM     13  C   UNL     1      -6.779   2.820  15.791  1.00  0.00     0.026 A 
ATOM     14  C   UNL     1      -6.277   4.002  13.744  1.00  0.00     0.026 A 
ATOM     15  C   UNL     1      -5.455   2.978  16.206  1.00  0.00     0.002 A 
ATOM     16  C   UNL     1      -4.955   4.163  14.162  1.00  0.00     0.002 A 
ATOM     17  C   UNL     1      -4.544   3.648  15.391  1.00  0.00     0.000 A 
ENDBRANCH   7  12
ENDBRANCH   1   7
BRANCH   4  18
ATOM     18  C   UNL     1      -7.348   0.364   9.453  1.00  0.00     0.089 C 
BRANCH  18  19
ATOM     19  C   UNL     1      -6.845   1.224   8.280  1.00  0.00     0.051 C 
BRANCH  19  20
ATOM     20  C   UNL     1      -6.420   0.371   7.108  1.00  0.00    -0.047 A 
ATOM     21  C   UNL     1      -7.008   0.551   5.848  1.00  0.00     0.004 A 
ATOM     22  C   UNL     1      -5.412  -0.591   7.257  1.00  0.00     0.004 A 
ATOM     23  C   UNL     1      -6.602  -0.225   4.762  1.00  0.00     0.000 A 
ATOM     24  C   UNL     1      -5.008  -1.366   6.169  1.00  0.00     0.000 A 
ATOM     25  C   UNL     1      -5.603  -1.184   4.922  1.00  0.00     0.000 A 
ENDBRANCH  19  20
ENDBRANCH  18  19
ENDBRANCH   4  18
TORSDOF 7
ENDMDL
MODEL 8
REMARK VINA RESULT:    -8.389      2.309      8.244
REMARK INTER + INTRA:         -12.892
REMARK INTER:                 -11.797
REMARK INTRA:                  -1.096
REMARK UNBOUND:                -1.071
REMARK SMILES CCC(=O)N(c1ccccc1)C1CCN(CCc2ccccc2)CC1
REMARK SMILES IDX 12 1 13 2 14 3 15 4 24 5 25 6 5 7 3 8 4 9 2 10 1 11 6 12
REMARK SMILES IDX 7 13 11 14 8 15 10 16 9 17 16 18 17 19 18 20 19 21 23 22
REMARK SMILES IDX 20 23 22 24 21 25
REMARK H PARENT
ROOT
ATOM      1  C   UNL     1      -7.069   2.524  11.462  1.00  0.00     0.093 C 
ATOM      2  C   UNL     1      -6.370   1.231  10.994  1.00  0.00     0.041 C 
ATOM      3  C   UNL     1      -7.358   0.086  10.786  1.00  0.00     0.086 C 
ATOM      4  N   UNL     1      -8.431   0.407   9.841  1.00  0.00    -0.303 NA
ATOM      5  C   UNL     1      -8.678   1.835   9.638  1.00  0.00     0.086 C 
ATOM      6  C   UNL     1      -8.521   2.607  10.945  1.00  0.00     0.041 C 
ENDROOT
BRANCH   1   7
ATOM      7  N   UNL     1      -6.958   2.840  12.911  1.00  0.00    -0.309 N 
BRANCH   7   8
ATOM      8  C   UNL     1      -6.155   3.940  13.254  1.00  0.00     0.226 C 
ATOM      9  O   UNL     1      -5.659   4.690  12.408  1.00  0.00    -0.275 OA
BRANCH   8  10
ATOM     10  C   UNL     1      -5.805   4.144  14.722  1.00  0.00     0.097 C 
ATOM     11  C   UNL     1      -4.526   3.413  15.088  1.00  0.00     0.014 C 
ENDBRANCH   8  10
ENDBRANCH   7   8
BRANCH   7  12
ATOM     12  C   UNL     1      -8.024   2.433  13.762  1.00  0.00     0.044 A 
ATOM     13  C   UNL     1      -9.003   3.346  14.173  1.00  0.00     0.026 A 
ATOM     14  C   UNL     1      -8.082   1.111  14.213  1.00  0.00     0.026 A 
ATOM     15  C   UNL     1     -10.041   2.932  15.009  1.00  0.00     0.002 A 
ATOM     16  C   UNL     1      -9.119   0.700  15.052  1.00  0.00     0.002 A 
ATOM     17  C   UNL     1     -10.100   1.610  15.447  1.00  0.00     0.000 A 
ENDBRANCH   7  12
ENDBRANCH   1   7
BRANCH   4  18
ATOM     18  C   UNL     1      -8.409  -0.373   8.597  1.00  0.00     0.089 C 
BRANCH  18  19
ATOM     19  C   UNL     1      -8.159   0.421   7.303  1.00  0.00     0.051 C 
BRANCH  19  20
ATOM     20  C   UNL     1      -7.113  -0.242   6.439  1.00  0.00    -0.047 A 
ATOM     21  C   UNL     1      -7.022   0.062   5.073  1.00  0.00     0.004 A 
ATOM     22  C   UNL     1      -6.200  -1.148   6.996  1.00  0.00     0.004 A 
ATOM     23  C   UNL     1      -6.044  -0.537   4.280  1.00  0.00     0.000 A 
ATOM     24  C   UNL     1      -5.223  -1.747   6.199  1.00  0.00     0.000 A 
ATOM     25  C   UNL     1      -5.145  -1.442   4.842  1.00  0.00     0.000 A 
ENDBRANCH  19  20
ENDBRANCH  18  19
ENDBRANCH   4  18
TORSDOF 7
ENDMDL
MODEL 9
REMARK VINA RESULT:    -8.138      1.917      8.015
REMARK INTER + INTRA:         -12.539
REMARK INTER:                 -11.656
REMARK INTRA:                  -0.884
REMARK UNBOUND:                -1.071
REMARK SMILES CCC(=O)N(c1ccccc1)C1CCN(CCc2ccccc2)CC1
REMARK SMILES IDX 12 1 13 2 14 3 15 4 24 5 25 6 5 7 3 8 4 9 2 10 1 11 6 12
REMARK SMILES IDX 7 13 11 14 8 15 10 16 9 17 16 18 17 19 18 20 19 21 23 22
REMARK SMILES IDX 20 23 22 24 21 25
REMARK H PARENT
ROOT
ATOM      1  C   UNL     1      -7.970   2.104  11.231  1.00  0.00     0.093 C 
ATOM      2  C   UNL     1      -6.985   1.108  10.586  1.00  0.00     0.041 C 
ATOM      3  C   UNL     1      -7.672  -0.190  10.168  1.00  0.00     0.086 C 
ATOM      4  N   UNL     1      -8.799   0.016   9.254  1.00  0.00    -0.303 NA
ATOM      5  C   UNL     1      -9.382   1.358   9.273  1.00  0.00     0.086 C 
ATOM      6  C   UNL     1      -9.403   1.923  10.690  1.00  0.00     0.041 C 
ENDROOT
BRANCH   1   7
ATOM      7  N   UNL     1      -7.925   2.200  12.716  1.00  0.00    -0.309 N 
BRANCH   7   8
ATOM      8  C   UNL     1      -8.472   1.123  13.431  1.00  0.00     0.226 C 
ATOM      9  O   UNL     1      -7.906   0.029  13.522  1.00  0.00    -0.275 OA
BRANCH   8  10
ATOM     10  C   UNL     1      -9.864   1.288  14.025  1.00  0.00     0.097 C 
ATOM     11  C   UNL     1      -9.809   2.001  15.364  1.00  0.00     0.014 C 
ENDBRANCH   8  10
ENDBRANCH   7   8
BRANCH   7  12
ATOM     12  C   UNL     1      -6.908   3.009  13.297  1.00  0.00     0.044 A 
ATOM     13  C   UNL     1      -6.271   4.007  12.550  1.00  0.00     0.026 A 
ATOM     14  C   UNL     1      -6.523   2.788  14.622  1.00  0.00     0.026 A 
ATOM     15  C   UNL     1      -5.274   4.791  13.133  1.00  0.00     0.002 A 
ATOM     16  C   UNL     1      -5.524   3.571  15.203  1.00  0.00     0.002 A 
ATOM     17  C   UNL     1      -4.903   4.574  14.459  1.00  0.00     0.000 A 
ENDBRANCH   7  12
ENDBRANCH   1   7
BRANCH   4  18
ATOM     18  C   UNL     1      -8.602  -0.525   7.903  1.00  0.00     0.089 C 
BRANCH  18  19
ATOM     19  C   UNL     1      -7.908   0.407   6.894  1.00  0.00     0.051 C 
BRANCH  19  20
ATOM     20  C   UNL     1      -6.861  -0.326   6.090  1.00  0.00    -0.047 A 
ATOM     21  C   UNL     1      -6.734  -0.100   4.713  1.00  0.00     0.004 A 
ATOM     22  C   UNL     1      -5.982  -1.221   6.716  1.00  0.00     0.004 A 
ATOM     23  C   UNL     1      -5.755  -0.764   3.975  1.00  0.00     0.000 A 
ATOM     24  C   UNL     1      -5.003  -1.884   5.975  1.00  0.00     0.000 A 
ATOM     25  C   UNL     1      -4.890  -1.656   4.605  1.00  0.00     0.000 A 
ENDBRANCH  19  20
ENDBRANCH  18  19
ENDBRANCH   4  18
TORSDOF 7
ENDMDL
