MODEL 1
REMARK VINA RESULT:    -8.709      0.000      0.000
REMARK INTER + INTRA:          -9.218
REMARK INTER:                  -9.218
REMARK INTRA:                   0.000
REMARK UNBOUND:                 0.000
REMARK SMILES CN1CC[C@]23c4c5ccc(O)c4O[C@H]2[C@H](O)C=C[C@H]3[C@H]1C5
REMARK SMILES IDX 1 1 2 2 3 3 4 4 5 5 19 6 20 7 21 8 7 9 6 10 12 11 10 12 9 13
REMARK SMILES IDX 8 14 13 15 14 16 15 17 17 18 18 19 16 20 11 22
REMARK H PARENT 16 21 11 23
ROOT
ATOM      1  C   UNL     1      -6.394  -0.330   4.556  1.00  0.00     0.105 C 
ATOM      2  N   UNL     1      -6.309  -0.222   6.009  1.00  0.00    -0.302 NA
ATOM      3  C   UNL     1      -5.706  -1.413   6.603  1.00  0.00     0.085 C 
ATOM      4  C   UNL     1      -5.590  -1.324   8.137  1.00  0.00     0.032 C 
ATOM      5  C   UNL     1      -6.836  -0.683   8.798  1.00  0.00     0.048 C 
ATOM      6  C   UNL     1      -8.016  -0.730   7.822  1.00  0.00     0.044 C 
ATOM      7  C   UNL     1      -7.606   0.188   6.616  1.00  0.00     0.068 C 
ATOM      8  C   UNL     1      -7.454   1.685   7.044  1.00  0.00     0.055 C 
ATOM      9  C   UNL     1      -6.727   1.855   8.353  1.00  0.00    -0.039 A 
ATOM     10  C   UNL     1      -6.526   0.740   9.145  1.00  0.00     0.012 A 
ATOM     11  C   UNL     1      -6.065   0.820  10.441  1.00  0.00     0.165 A 
ATOM     12  C   UNL     1      -5.668   2.026  10.969  1.00  0.00     0.158 A 
ATOM     13  C   UNL     1      -5.791   3.170  10.181  1.00  0.00     0.050 A 
ATOM     14  C   UNL     1      -6.339   3.090   8.882  1.00  0.00     0.008 A 
ATOM     15  O   UNL     1      -6.136  -0.384  11.098  1.00  0.00    -0.482 OA
ATOM     16  C   UNL     1      -7.065  -1.164  10.247  1.00  0.00     0.217 C 
ATOM     17  C   UNL     1      -8.517  -0.958  10.781  1.00  0.00     0.178 C 
ATOM     18  C   UNL     1      -9.551  -0.520   9.781  1.00  0.00     0.004 C 
ATOM     19  C   UNL     1      -9.340  -0.405   8.463  1.00  0.00    -0.022 C 
ENDROOT
BRANCH  17  20
ATOM     20  O   UNL     1      -8.992  -2.182  11.354  1.00  0.00    -0.385 OA
ATOM     21  H   UNL     1      -9.605  -1.950  12.071  1.00  0.00     0.211 HD
ENDBRANCH  17  20
BRANCH  12  22
ATOM     22  O   UNL     1      -5.201   2.125  12.242  1.00  0.00    -0.504 OA
ATOM     23  H   UNL     1      -5.832   2.704  12.711  1.00  0.00     0.293 HD
ENDBRANCH  12  22
TORSDOF 2
ENDMDL
MODEL 2
REMARK VINA RESULT:    -8.332      2.528      4.548
REMARK INTER + INTRA:          -8.819
REMARK INTER:                  -8.819
REMARK INTRA:                   0.000
REMARK UNBOUND:                 0.000
REMARK SMILES CN1CC[C@]23c4c5ccc(O)c4O[C@H]2[C@H](O)C=C[C@H]3[C@H]1C5
REMARK SMILES IDX 1 1 2 2 3 3 4 4 5 5 19 6 20 7 21 8 7 9 6 10 12 11 10 12 9 13
REMARK SMILES IDX 8 14 13 15 14 16 15 17 17 18 18 19 16 20 11 22
REMARK H PARENT 16 21 11 23
ROOT
ATOM      1  C   UNL     1     -11.421  -0.638  11.460  1.00  0.00     0.105 C 
ATOM      2  N   UNL     1     -10.357  -0.715  10.464  1.00  0.00    -0.302 NA
ATOM      3  C   UNL     1      -9.918  -2.093  10.251  1.00  0.00     0.085 C 
ATOM      4  C   UNL     1      -8.802  -2.210   9.195  1.00  0.00     0.032 C 
ATOM      5  C   UNL     1      -7.752  -1.076   9.302  1.00  0.00     0.048 C 
ATOM      6  C   UNL     1      -7.842  -0.421  10.683  1.00  0.00     0.044 C 
ATOM      7  C   UNL     1      -9.260   0.253  10.742  1.00  0.00     0.068 C 
ATOM      8  C   UNL     1      -9.402   1.411   9.699  1.00  0.00     0.055 C 
ATOM      9  C   UNL     1      -8.827   1.067   8.350  1.00  0.00    -0.039 A 
ATOM     10  C   UNL     1      -8.027  -0.056   8.241  1.00  0.00     0.012 A 
ATOM     11  C   UNL     1      -7.289  -0.338   7.111  1.00  0.00     0.165 A 
ATOM     12  C   UNL     1      -7.414   0.437   5.983  1.00  0.00     0.158 A 
ATOM     13  C   UNL     1      -8.264   1.543   6.025  1.00  0.00     0.050 A 
ATOM     14  C   UNL     1      -8.954   1.871   7.213  1.00  0.00     0.008 A 
ATOM     15  O   UNL     1      -6.419  -1.383   7.302  1.00  0.00    -0.482 OA
ATOM     16  C   UNL     1      -6.360  -1.492   8.778  1.00  0.00     0.217 C 
ATOM     17  C   UNL     1      -5.179  -0.611   9.295  1.00  0.00     0.178 C 
ATOM     18  C   UNL     1      -5.498   0.383  10.376  1.00  0.00     0.004 C 
ATOM     19  C   UNL     1      -6.682   0.486  10.996  1.00  0.00    -0.022 C 
ENDROOT
BRANCH  17  20
ATOM     20  O   UNL     1      -4.142  -1.456   9.806  1.00  0.00    -0.385 OA
ATOM     21  H   UNL     1      -3.872  -1.097  10.667  1.00  0.00     0.211 HD
ENDBRANCH  17  20
BRANCH  12  22
ATOM     22  O   UNL     1      -6.703   0.169   4.856  1.00  0.00    -0.504 OA
ATOM     23  H   UNL     1      -7.267   0.458   4.113  1.00  0.00     0.293 HD
ENDBRANCH  12  22
TORSDOF 2
ENDMDL
MODEL 3
REMARK VINA RESULT:    -8.155      2.298      4.754
REMARK INTER + INTRA:          -8.632
REMARK INTER:                  -8.632
REMARK INTRA:                   0.000
REMARK UNBOUND:                 0.000
REMARK SMILES CN1CC[C@]23c4c5ccc(O)c4O[C@H]2[C@H](O)C=C[C@H]3[C@H]1C5
REMARK SMILES IDX 1 1 2 2 3 3 4 4 5 5 19 6 20 7 21 8 7 9 6 10 12 11 10 12 9 13
REMARK SMILES IDX 8 14 13 15 14 16 15 17 17 18 18 19 16 20 11 22
REMARK H PARENT 16 21 11 23
ROOT
ATOM      1  C   UNL     1      -5.851   3.526  12.321  1.00  0.00     0.105 C 
ATOM      2  N   UNL     1      -6.281   2.352  11.568  1.00  0.00    -0.302 NA
ATOM      3  C   UNL     1      -5.188   1.398  11.386  1.00  0.00     0.085 C 
ATOM      4  C   UNL     1      -5.613   0.141  10.605  1.00  0.00     0.032 C 
ATOM      5  C   UNL     1      -6.559   0.460   9.420  1.00  0.00     0.048 C 
ATOM      6  C   UNL     1      -6.453   1.946   9.065  1.00  0.00     0.044 C 
ATOM      7  C   UNL     1      -6.999   2.722  10.316  1.00  0.00     0.068 C 
ATOM      8  C   UNL     1      -8.518   2.440  10.564  1.00  0.00     0.055 C 
ATOM      9  C   UNL     1      -8.883   0.987  10.406  1.00  0.00    -0.039 A 
ATOM     10  C   UNL     1      -7.965   0.136   9.818  1.00  0.00     0.012 A 
ATOM     11  C   UNL     1      -8.279  -1.152   9.439  1.00  0.00     0.165 A 
ATOM     12  C   UNL     1      -9.506  -1.691   9.744  1.00  0.00     0.158 A 
ATOM     13  C   UNL     1     -10.442  -0.889  10.398  1.00  0.00     0.050 A 
ATOM     14  C   UNL     1     -10.140   0.455  10.710  1.00  0.00     0.008 A 
ATOM     15  O   UNL     1      -7.282  -1.737   8.697  1.00  0.00    -0.482 OA
ATOM     16  C   UNL     1      -6.464  -0.575   8.278  1.00  0.00     0.217 C 
ATOM     17  C   UNL     1      -6.991  -0.071   6.897  1.00  0.00     0.178 C 
ATOM     18  C   UNL     1      -7.325   1.391   6.792  1.00  0.00     0.004 C 
ATOM     19  C   UNL     1      -7.101   2.299   7.752  1.00  0.00    -0.022 C 
ENDROOT
BRANCH  17  20
ATOM     20  O   UNL     1      -6.012  -0.342   5.886  1.00  0.00    -0.385 OA
ATOM     21  H   UNL     1      -5.147  -0.077   6.239  1.00  0.00     0.211 HD
ENDBRANCH  17  20
BRANCH  12  22
ATOM     22  O   UNL     1      -9.831  -2.962   9.388  1.00  0.00    -0.504 OA
ATOM     23  H   UNL     1     -10.804  -3.011   9.442  1.00  0.00     0.293 HD
ENDBRANCH  12  22
TORSDOF 2
ENDMDL
MODEL 4
REMARK VINA RESULT:    -8.112      1.624      2.092
REMARK INTER + INTRA:          -8.586
REMARK INTER:                  -8.586
REMARK INTRA:                   0.000
REMARK UNBOUND:                 0.000
REMARK SMILES CN1CC[C@]23c4c5ccc(O)c4O[C@H]2[C@H](O)C=C[C@H]3[C@H]1C5
REMARK SMILES IDX 1 1 2 2 3 3 4 4 5 5 19 6 20 7 21 8 7 9 6 10 12 11 10 12 9 13
REMARK SMILES IDX 8 14 13 15 14 16 15 17 17 18 18 19 16 20 11 22
REMARK H PARENT 16 21 11 23
ROOT
ATOM      1  C   UNL     1      -5.382  -0.696   6.630  1.00  0.00     0.105 C 
ATOM      2  N   UNL     1      -5.623  -0.030   7.906  1.00  0.00    -0.302 NA
ATOM      3  C   UNL     1      -5.327  -0.908   9.037  1.00  0.00     0.085 C 
ATOM      4  C   UNL     1      -5.560  -0.229  10.400  1.00  0.00     0.032 C 
ATOM      5  C   UNL     1      -6.835   0.651  10.423  1.00  0.00     0.048 C 
ATOM      6  C   UNL     1      -7.753   0.256   9.263  1.00  0.00     0.044 C 
ATOM      7  C   UNL     1      -6.964   0.617   7.954  1.00  0.00     0.068 C 
ATOM      8  C   UNL     1      -6.729   2.158   7.819  1.00  0.00     0.055 C 
ATOM      9  C   UNL     1      -6.311   2.809   9.111  1.00  0.00    -0.039 A 
ATOM     10  C   UNL     1      -6.438   2.088  10.284  1.00  0.00     0.012 A 
ATOM     11  C   UNL     1      -6.284   2.659  11.529  1.00  0.00     0.165 A 
ATOM     12  C   UNL     1      -5.874   3.964  11.654  1.00  0.00     0.158 A 
ATOM     13  C   UNL     1      -5.666   4.711  10.495  1.00  0.00     0.050 A 
ATOM     14  C   UNL     1      -5.905   4.143   9.224  1.00  0.00     0.008 A 
ATOM     15  O   UNL     1      -6.655   1.809  12.544  1.00  0.00    -0.482 OA
ATOM     16  C   UNL     1      -7.452   0.782  11.833  1.00  0.00     0.217 C 
ATOM     17  C   UNL     1      -8.951   1.217  11.851  1.00  0.00     0.178 C 
ATOM     18  C   UNL     1      -9.662   1.254  10.527  1.00  0.00     0.004 C 
ATOM     19  C   UNL     1      -9.138   0.838   9.365  1.00  0.00    -0.022 C 
ENDROOT
BRANCH  17  20
ATOM     20  O   UNL     1      -9.695   0.327  12.692  1.00  0.00    -0.385 OA
ATOM     21  H   UNL     1     -10.618   0.629  12.691  1.00  0.00     0.211 HD
ENDBRANCH  17  20
BRANCH  12  22
ATOM     22  O   UNL     1      -5.706   4.542  12.874  1.00  0.00    -0.504 OA
ATOM     23  H   UNL     1      -6.193   3.977  13.503  1.00  0.00     0.293 HD
ENDBRANCH  12  22
TORSDOF 2
ENDMDL
MODEL 5
REMARK VINA RESULT:    -7.973      2.486      4.519
REMARK INTER + INTRA:          -8.439
REMARK INTER:                  -8.439
REMARK INTRA:                   0.000
REMARK UNBOUND:                 0.000
REMARK SMILES CN1CC[C@]23c4c5ccc(O)c4O[C@H]2[C@H](O)C=C[C@H]3[C@H]1C5
REMARK SMILES IDX 1 1 2 2 3 3 4 4 5 5 19 6 20 7 21 8 7 9 6 10 12 11 10 12 9 13
REMARK SMILES IDX 8 14 13 15 14 16 15 17 17 18 18 19 16 20 11 22
REMARK H PARENT 16 21 11 23
ROOT
ATOM      1  C   UNL     1      -4.892   1.910  11.940  1.00  0.00     0.105 C 
ATOM      2  N   UNL     1      -5.627   1.511  10.744  1.00  0.00    -0.302 NA
ATOM      3  C   UNL     1      -6.789   2.368  10.514  1.00  0.00     0.085 C 
ATOM      4  C   UNL     1      -7.579   1.980   9.250  1.00  0.00     0.032 C 
ATOM      5  C   UNL     1      -7.707   0.446   9.067  1.00  0.00     0.048 C 
ATOM      6  C   UNL     1      -7.422  -0.254  10.399  1.00  0.00     0.044 C 
ATOM      7  C   UNL     1      -5.917   0.050  10.727  1.00  0.00     0.068 C 
ATOM      8  C   UNL     1      -4.948  -0.593   9.681  1.00  0.00     0.055 C 
ATOM      9  C   UNL     1      -5.419  -0.430   8.259  1.00  0.00    -0.039 A 
ATOM     10  C   UNL     1      -6.717  -0.006   8.039  1.00  0.00     0.012 A 
ATOM     11  C   UNL     1      -7.306  -0.027   6.793  1.00  0.00     0.165 A 
ATOM     12  C   UNL     1      -6.575  -0.365   5.680  1.00  0.00     0.158 A 
ATOM     13  C   UNL     1      -5.240  -0.734   5.846  1.00  0.00     0.050 A 
ATOM     14  C   UNL     1      -4.667  -0.788   7.135  1.00  0.00     0.008 A 
ATOM     15  O   UNL     1      -8.652   0.242   6.846  1.00  0.00    -0.482 OA
ATOM     16  C   UNL     1      -8.969   0.036   8.279  1.00  0.00     0.217 C 
ATOM     17  C   UNL     1      -9.410  -1.448   8.481  1.00  0.00     0.178 C 
ATOM     18  C   UNL     1      -8.698  -2.227   9.552  1.00  0.00     0.004 C 
ATOM     19  C   UNL     1      -7.804  -1.711  10.407  1.00  0.00    -0.022 C 
ENDROOT
BRANCH  17  20
ATOM     20  O   UNL     1     -10.805  -1.491   8.801  1.00  0.00    -0.385 OA
ATOM     21  H   UNL     1     -10.886  -1.817   9.712  1.00  0.00     0.211 HD
ENDBRANCH  17  20
BRANCH  12  22
ATOM     22  O   UNL     1      -7.135  -0.381   4.441  1.00  0.00    -0.504 OA
ATOM     23  H   UNL     1      -7.855   0.277   4.468  1.00  0.00     0.293 HD
ENDBRANCH  12  22
TORSDOF 2
ENDMDL
MODEL 6
REMARK VINA RESULT:    -7.698      2.394      4.159
REMARK INTER + INTRA:          -8.148
REMARK INTER:                  -8.148
REMARK INTRA:                   0.000
REMARK UNBOUND:                 0.000
REMARK SMILES CN1CC[C@]23c4c5ccc(O)c4O[C@H]2[C@H](O)C=C[C@H]3[C@H]1C5
REMARK SMILES IDX 1 1 2 2 3 3 4 4 5 5 19 6 20 7 21 8 7 9 6 10 12 11 10 12 9 13
REMARK SMILES IDX 8 14 13 15 14 16 15 17 17 18 18 19 16 20 11 22
REMARK H PARENT 16 21 11 23
ROOT
ATOM      1  C   UNL     1      -9.314  -2.849  11.231  1.00  0.00     0.105 C 
ATOM      2  N   UNL     1      -8.857  -1.657  10.523  1.00  0.00    -0.302 NA
ATOM      3  C   UNL     1      -9.915  -1.088   9.689  1.00  0.00     0.085 C 
ATOM      4  C   UNL     1      -9.468   0.180   8.939  1.00  0.00     0.032 C 
ATOM      5  C   UNL     1      -8.025   0.075   8.383  1.00  0.00     0.048 C 
ATOM      6  C   UNL     1      -7.604  -1.396   8.328  1.00  0.00     0.044 C 
ATOM      7  C   UNL     1      -7.564  -1.884   9.820  1.00  0.00     0.068 C 
ATOM      8  C   UNL     1      -6.461  -1.146  10.648  1.00  0.00     0.055 C 
ATOM      9  C   UNL     1      -6.409   0.335  10.377  1.00  0.00    -0.039 A 
ATOM     10  C   UNL     1      -7.100   0.830   9.286  1.00  0.00     0.012 A 
ATOM     11  C   UNL     1      -6.948   2.123   8.832  1.00  0.00     0.165 A 
ATOM     12  C   UNL     1      -6.178   3.023   9.530  1.00  0.00     0.158 A 
ATOM     13  C   UNL     1      -5.516   2.585  10.677  1.00  0.00     0.050 A 
ATOM     14  C   UNL     1      -5.613   1.238  11.089  1.00  0.00     0.008 A 
ATOM     15  O   UNL     1      -7.570   2.330   7.625  1.00  0.00    -0.482 OA
ATOM     16  C   UNL     1      -7.794   0.951   7.133  1.00  0.00     0.217 C 
ATOM     17  C   UNL     1      -6.571   0.530   6.260  1.00  0.00     0.178 C 
ATOM     18  C   UNL     1      -5.902  -0.769   6.612  1.00  0.00     0.004 C 
ATOM     19  C   UNL     1      -6.344  -1.632   7.536  1.00  0.00    -0.022 C 
ENDROOT
BRANCH  17  20
ATOM     20  O   UNL     1      -6.976   0.426   4.890  1.00  0.00    -0.385 OA
ATOM     21  H   UNL     1      -6.174   0.303   4.357  1.00  0.00     0.211 HD
ENDBRANCH  17  20
BRANCH  12  22
ATOM     22  O   UNL     1      -6.024   4.305   9.104  1.00  0.00    -0.504 OA
ATOM     23  H   UNL     1      -6.910   4.710   9.160  1.00  0.00     0.293 HD
ENDBRANCH  12  22
TORSDOF 2
ENDMDL
MODEL 7
REMARK VINA RESULT:    -7.695      1.697      4.098
REMARK INTER + INTRA:          -8.145
REMARK INTER:                  -8.145
REMARK INTRA:                   0.000
REMARK UNBOUND:                 0.000
REMARK SMILES CN1CC[C@]23c4c5ccc(O)c4O[C@H]2[C@H](O)C=C[C@H]3[C@H]1C5
REMARK SMILES IDX 1 1 2 2 3 3 4 4 5 5 19 6 20 7 21 8 7 9 6 10 12 11 10 12 9 13
REMARK SMILES IDX 8 14 13 15 14 16 15 17 17 18 18 19 16 20 11 22
REMARK H PARENT 16 21 11 23
ROOT
ATOM      1  C   UNL     1      -6.435  -0.254   4.611  1.00  0.00     0.105 C 
ATOM      2  N   UNL     1      -7.192   0.025   5.827  1.00  0.00    -0.302 NA
ATOM      3  C   UNL     1      -7.902   1.300   5.739  1.00  0.00     0.085 C 
ATOM      4  C   UNL     1      -8.722   1.618   7.004  1.00  0.00     0.032 C 
ATOM      5  C   UNL     1      -7.982   1.239   8.312  1.00  0.00     0.048 C 
ATOM      6  C   UNL     1      -6.485   1.084   8.027  1.00  0.00     0.044 C 
ATOM      7  C   UNL     1      -6.363  -0.142   7.053  1.00  0.00     0.068 C 
ATOM      8  C   UNL     1      -6.819  -1.477   7.731  1.00  0.00     0.055 C 
ATOM      9  C   UNL     1      -8.081  -1.328   8.541  1.00  0.00    -0.039 A 
ATOM     10  C   UNL     1      -8.534  -0.053   8.827  1.00  0.00     0.012 A 
ATOM     11  C   UNL     1      -9.548   0.192   9.728  1.00  0.00     0.165 A 
ATOM     12  C   UNL     1     -10.242  -0.848  10.300  1.00  0.00     0.158 A 
ATOM     13  C   UNL     1      -9.863  -2.154   9.987  1.00  0.00     0.050 A 
ATOM     14  C   UNL     1      -8.770  -2.395   9.125  1.00  0.00     0.008 A 
ATOM     15  O   UNL     1      -9.691   1.530  10.004  1.00  0.00    -0.482 OA
ATOM     16  C   UNL     1      -8.413   2.100   9.519  1.00  0.00     0.217 C 
ATOM     17  C   UNL     1      -7.395   2.117  10.703  1.00  0.00     0.178 C 
ATOM     18  C   UNL     1      -6.056   1.481  10.455  1.00  0.00     0.004 C 
ATOM     19  C   UNL     1      -5.641   1.008   9.272  1.00  0.00    -0.022 C 
ENDROOT
BRANCH  17  20
ATOM     20  O   UNL     1      -7.141   3.472  11.093  1.00  0.00    -0.385 OA
ATOM     21  H   UNL     1      -7.992   3.939  11.095  1.00  0.00     0.211 HD
ENDBRANCH  17  20
BRANCH  12  22
ATOM     22  O   UNL     1     -11.252  -0.627  11.182  1.00  0.00    -0.504 OA
ATOM     23  H   UNL     1     -11.230   0.330  11.374  1.00  0.00     0.293 HD
ENDBRANCH  12  22
TORSDOF 2
ENDMDL
MODEL 8
REMARK VINA RESULT:    -7.450      2.723      4.676
REMARK INTER + INTRA:          -7.886
REMARK INTER:                  -7.886
REMARK INTRA:                   0.000
REMARK UNBOUND:                 0.000
REMARK SMILES CN1CC[C@]23c4c5ccc(O)c4O[C@H]2[C@H](O)C=C[C@H]3[C@H]1C5
REMARK SMILES IDX 1 1 2 2 3 3 4 4 5 5 19 6 20 7 21 8 7 9 6 10 12 11 10 12 9 13
REMARK SMILES IDX 8 14 13 15 14 16 15 17 17 18 18 19 16 20 11 22
REMARK H PARENT 16 21 11 23
ROOT
ATOM      1  C   UNL     1      -6.900   3.476  13.384  1.00  0.00     0.105 C 
ATOM      2  N   UNL     1      -7.420   2.773  12.216  1.00  0.00    -0.302 NA
ATOM      3  C   UNL     1      -8.802   2.339  12.420  1.00  0.00     0.085 C 
ATOM      4  C   UNL     1      -9.385   1.603  11.199  1.00  0.00     0.032 C 
ATOM      5  C   UNL     1      -8.368   0.642  10.533  1.00  0.00     0.048 C 
ATOM      6  C   UNL     1      -7.232   0.337  11.513  1.00  0.00     0.044 C 
ATOM      7  C   UNL     1      -6.495   1.704  11.748  1.00  0.00     0.068 C 
ATOM      8  C   UNL     1      -5.814   2.233  10.443  1.00  0.00     0.055 C 
ATOM      9  C   UNL     1      -6.683   2.089   9.221  1.00  0.00    -0.039 A 
ATOM     10  C   UNL     1      -7.813   1.296   9.306  1.00  0.00     0.012 A 
ATOM     11  C   UNL     1      -8.552   0.932   8.201  1.00  0.00     0.165 A 
ATOM     12  C   UNL     1      -8.258   1.449   6.961  1.00  0.00     0.158 A 
ATOM     13  C   UNL     1      -7.166   2.308   6.840  1.00  0.00     0.050 A 
ATOM     14  C   UNL     1      -6.365   2.612   7.963  1.00  0.00     0.008 A 
ATOM     15  O   UNL     1      -9.501  -0.017   8.495  1.00  0.00    -0.482 OA
ATOM     16  C   UNL     1      -9.044  -0.539   9.804  1.00  0.00     0.217 C 
ATOM     17  C   UNL     1      -8.112  -1.766   9.550  1.00  0.00     0.178 C 
ATOM     18  C   UNL     1      -6.763  -1.741  10.211  1.00  0.00     0.004 C 
ATOM     19  C   UNL     1      -6.353  -0.806  11.080  1.00  0.00    -0.022 C 
ENDROOT
BRANCH  17  20
ATOM     20  O   UNL     1      -8.766  -2.960   9.996  1.00  0.00    -0.385 OA
ATOM     21  H   UNL     1      -8.290  -3.714   9.611  1.00  0.00     0.211 HD
ENDBRANCH  17  20
BRANCH  12  22
ATOM     22  O   UNL     1      -8.981   1.110   5.861  1.00  0.00    -0.504 OA
ATOM     23  H   UNL     1      -8.523   0.342   5.470  1.00  0.00     0.293 HD
ENDBRANCH  12  22
TORSDOF 2
ENDMDL
MODEL 9
REMARK VINA RESULT:    -7.388      2.011      4.266
REMARK INTER + INTRA:          -7.820
REMARK INTER:                  -7.820
REMARK INTRA:                   0.000
REMARK UNBOUND:                 0.000
REMARK SMILES CN1CC[C@]23c4c5ccc(O)c4O[C@H]2[C@H](O)C=C[C@H]3[C@H]1C5
REMARK SMILES IDX 1 1 2 2 3 3 4 4 5 5 19 6 20 7 21 8 7 9 6 10 12 11 10 12 9 13
REMARK SMILES IDX 8 14 13 15 14 16 15 17 17 18 18 19 16 20 11 22
REMARK H PARENT 16 21 11 23
ROOT
ATOM      1  C   UNL     1     -11.286  -1.851  10.503  1.00  0.00     0.105 C 
ATOM      2  N   UNL     1      -9.882  -1.618  10.178  1.00  0.00    -0.302 NA
ATOM      3  C   UNL     1      -8.992  -2.313  11.107  1.00  0.00     0.085 C 
ATOM      4  C   UNL     1      -7.502  -2.098  10.783  1.00  0.00     0.032 C 
ATOM      5  C   UNL     1      -7.182  -0.643  10.357  1.00  0.00     0.048 C 
ATOM      6  C   UNL     1      -8.317   0.283  10.805  1.00  0.00     0.044 C 
ATOM      7  C   UNL     1      -9.582  -0.171   9.994  1.00  0.00     0.068 C 
ATOM      8  C   UNL     1      -9.409   0.065   8.457  1.00  0.00     0.055 C 
ATOM      9  C   UNL     1      -8.049  -0.336   7.947  1.00  0.00    -0.039 A 
ATOM     10  C   UNL     1      -7.049  -0.590   8.867  1.00  0.00     0.012 A 
ATOM     11  C   UNL     1      -5.729  -0.756   8.504  1.00  0.00     0.165 A 
ATOM     12  C   UNL     1      -5.367  -0.792   7.179  1.00  0.00     0.158 A 
ATOM     13  C   UNL     1      -6.356  -0.607   6.213  1.00  0.00     0.050 A 
ATOM     14  C   UNL     1      -7.692  -0.358   6.595  1.00  0.00     0.008 A 
ATOM     15  O   UNL     1      -4.889  -0.793   9.591  1.00  0.00    -0.482 OA
ATOM     16  C   UNL     1      -5.729  -0.227  10.672  1.00  0.00     0.217 C 
ATOM     17  C   UNL     1      -5.491   1.315  10.729  1.00  0.00     0.178 C 
ATOM     18  C   UNL     1      -6.711   2.191  10.681  1.00  0.00     0.004 C 
ATOM     19  C   UNL     1      -7.975   1.747  10.704  1.00  0.00    -0.022 C 
ENDROOT
BRANCH  17  20
ATOM     20  O   UNL     1      -4.796   1.644  11.938  1.00  0.00    -0.385 OA
ATOM     21  H   UNL     1      -5.387   2.200  12.472  1.00  0.00     0.211 HD
ENDBRANCH  17  20
BRANCH  12  22
ATOM     22  O   UNL     1      -4.072  -0.964   6.802  1.00  0.00    -0.504 OA
ATOM     23  H   UNL     1      -3.536  -0.745   7.587  1.00  0.00     0.293 HD
ENDBRANCH  12  22
TORSDOF 2
ENDMDL
