MODEL 1
REMARK VINA RESULT:    -6.164      0.000      0.000
REMARK INTER + INTRA:          -7.720
REMARK INTER:                  -7.425
REMARK INTRA:                  -0.296
REMARK UNBOUND:                -0.296
REMARK SMILES CCCN[C@H]1CCc2nc(N)sc2C1
REMARK SMILES IDX 4 1 3 3 2 4 1 5 5 6 6 7 14 8 7 9 13 10 8 11 12 12 9 13 10 14
REMARK SMILES IDX 11 15
REMARK H PARENT 4 2 11 16 11 17
ROOT
ATOM      1  N   UNL     1     111.196 125.788  96.705  1.00  0.00    -0.314 NA
ATOM      2  H   UNL     1     111.159 124.909  97.219  1.00  0.00     0.122 HD
ENDROOT
BRANCH   1   3
ATOM      3  C   UNL     1     111.561 125.540  95.310  1.00  0.00     0.081 C 
BRANCH   3   4
ATOM      4  C   UNL     1     112.313 124.214  95.157  1.00  0.00     0.012 C 
ATOM      5  C   UNL     1     111.893 123.152  96.163  1.00  0.00     0.005 C 
ENDBRANCH   3   4
ENDBRANCH   1   3
BRANCH   1   6
ATOM      6  C   UNL     1     112.104 126.730  97.381  1.00  0.00     0.059 C 
ATOM      7  C   UNL     1     113.149 125.896  98.169  1.00  0.00     0.026 C 
ATOM      8  C   UNL     1     112.803 127.717  96.402  1.00  0.00     0.067 C 
ATOM      9  C   UNL     1     114.071 126.787  99.020  1.00  0.00     0.059 C 
ATOM     10  C   UNL     1     113.954 128.385  97.074  1.00  0.00     0.031 A 
ATOM     11  C   UNL     1     114.549 127.963  98.244  1.00  0.00     0.057 A 
ATOM     12  S   UNL     1     114.747 129.764  96.477  1.00  0.00    -0.102 S 
ATOM     13  N   UNL     1     115.612 128.729  98.672  1.00  0.00    -0.225 NA
ATOM     14  C   UNL     1     115.826 129.702  97.819  1.00  0.00     0.180 A 
BRANCH  14  15
ATOM     15  N   UNL     1     116.802 130.612  97.975  1.00  0.00    -0.375 N 
ATOM     16  H   UNL     1     116.595 131.519  97.574  1.00  0.00     0.159 HD
ATOM     17  H   UNL     1     117.750 130.299  97.803  1.00  0.00     0.159 HD
ENDBRANCH  14  15
ENDBRANCH   1   6
TORSDOF 4
ENDMDL
MODEL 2
REMARK VINA RESULT:    -5.947      1.248      1.963
REMARK INTER + INTRA:          -7.459
REMARK INTER:                  -7.181
REMARK INTRA:                  -0.278
REMARK UNBOUND:                -0.296
REMARK SMILES CCCN[C@H]1CCc2nc(N)sc2C1
REMARK SMILES IDX 4 1 3 3 2 4 1 5 5 6 6 7 14 8 7 9 13 10 8 11 12 12 9 13 10 14
REMARK SMILES IDX 11 15
REMARK H PARENT 4 2 11 16 11 17
ROOT
ATOM      1  N   UNL     1     110.917 126.206  96.557  1.00  0.00    -0.314 NA
ATOM      2  H   UNL     1     110.954 125.701  97.443  1.00  0.00     0.122 HD
ENDROOT
BRANCH   1   3
ATOM      3  C   UNL     1     110.746 125.266  95.450  1.00  0.00     0.081 C 
BRANCH   3   4
ATOM      4  C   UNL     1     111.982 124.376  95.276  1.00  0.00     0.012 C 
ATOM      5  C   UNL     1     111.953 123.117  96.132  1.00  0.00     0.005 C 
ENDBRANCH   3   4
ENDBRANCH   1   3
BRANCH   1   6
ATOM      6  C   UNL     1     112.108 127.059  96.414  1.00  0.00     0.059 C 
ATOM      7  C   UNL     1     111.624 128.503  96.122  1.00  0.00     0.026 C 
ATOM      8  C   UNL     1     113.038 127.027  97.662  1.00  0.00     0.067 C 
ATOM      9  C   UNL     1     112.797 129.454  95.826  1.00  0.00     0.059 C 
ATOM     10  C   UNL     1     114.009 128.156  97.615  1.00  0.00     0.031 A 
ATOM     11  C   UNL     1     113.901 129.267  96.806  1.00  0.00     0.057 A 
ATOM     12  S   UNL     1     115.398 128.272  98.588  1.00  0.00    -0.102 S 
ATOM     13  N   UNL     1     114.911 130.195  96.944  1.00  0.00    -0.225 NA
ATOM     14  C   UNL     1     115.756 129.793  97.863  1.00  0.00     0.180 A 
BRANCH  14  15
ATOM     15  N   UNL     1     116.845 130.497  98.214  1.00  0.00    -0.375 N 
ATOM     16  H   UNL     1     117.368 130.100  98.987  1.00  0.00     0.159 HD
ATOM     17  H   UNL     1     116.742 131.503  98.268  1.00  0.00     0.159 HD
ENDBRANCH  14  15
ENDBRANCH   1   6
TORSDOF 4
ENDMDL
MODEL 3
REMARK VINA RESULT:    -5.903      3.011      4.404
REMARK INTER + INTRA:          -7.407
REMARK INTER:                  -7.240
REMARK INTRA:                  -0.167
REMARK UNBOUND:                -0.296
REMARK SMILES CCCN[C@H]1CCc2nc(N)sc2C1
REMARK SMILES IDX 4 1 3 3 2 4 1 5 5 6 6 7 14 8 7 9 13 10 8 11 12 12 9 13 10 14
REMARK SMILES IDX 11 15
REMARK H PARENT 4 2 11 16 11 17
ROOT
ATOM      1  N   UNL     1     111.548 130.509  95.633  1.00  0.00    -0.314 NA
ATOM      2  H   UNL     1     110.808 130.577  96.331  1.00  0.00     0.122 HD
ENDROOT
BRANCH   1   3
ATOM      3  C   UNL     1     111.094 129.710  94.495  1.00  0.00     0.081 C 
BRANCH   3   4
ATOM      4  C   UNL     1     111.207 130.492  93.182  1.00  0.00     0.012 C 
ATOM      5  C   UNL     1     110.435 131.804  93.183  1.00  0.00     0.005 C 
ENDBRANCH   3   4
ENDBRANCH   1   3
BRANCH   1   6
ATOM      6  C   UNL     1     112.779 129.990  96.251  1.00  0.00     0.059 C 
ATOM      7  C   UNL     1     113.182 130.961  97.391  1.00  0.00     0.026 C 
ATOM      8  C   UNL     1     112.627 128.536  96.787  1.00  0.00     0.067 C 
ATOM      9  C   UNL     1     114.533 130.578  98.021  1.00  0.00     0.059 C 
ATOM     10  C   UNL     1     113.755 128.202  97.703  1.00  0.00     0.031 A 
ATOM     11  C   UNL     1     114.608 129.115  98.284  1.00  0.00     0.057 A 
ATOM     12  S   UNL     1     114.145 126.628  98.213  1.00  0.00    -0.102 S 
ATOM     13  N   UNL     1     115.570 128.578  99.112  1.00  0.00    -0.225 NA
ATOM     14  C   UNL     1     115.423 127.275  99.170  1.00  0.00     0.180 A 
BRANCH  14  15
ATOM     15  N   UNL     1     116.220 126.481  99.903  1.00  0.00    -0.375 N 
ATOM     16  H   UNL     1     117.211 126.612  99.733  1.00  0.00     0.159 HD
ATOM     17  H   UNL     1     115.948 125.509  99.982  1.00  0.00     0.159 HD
ENDBRANCH  14  15
ENDBRANCH   1   6
TORSDOF 4
ENDMDL
MODEL 4
REMARK VINA RESULT:    -5.861      2.077      5.678
REMARK INTER + INTRA:          -7.356
REMARK INTER:                  -7.095
REMARK INTRA:                  -0.261
REMARK UNBOUND:                -0.296
REMARK SMILES CCCN[C@H]1CCc2nc(N)sc2C1
REMARK SMILES IDX 4 1 3 3 2 4 1 5 5 6 6 7 14 8 7 9 13 10 8 11 12 12 9 13 10 14
REMARK SMILES IDX 11 15
REMARK H PARENT 4 2 11 16 11 17
ROOT
ATOM      1  N   UNL     1     115.728 127.813  98.160  1.00  0.00    -0.314 NA
ATOM      2  H   UNL     1     115.744 127.190  98.967  1.00  0.00     0.122 HD
ENDROOT
BRANCH   1   3
ATOM      3  C   UNL     1     115.544 129.197  98.597  1.00  0.00     0.081 C 
BRANCH   3   4
ATOM      4  C   UNL     1     116.470 130.151  97.835  1.00  0.00     0.012 C 
ATOM      5  C   UNL     1     115.741 131.046  96.842  1.00  0.00     0.005 C 
ENDBRANCH   3   4
ENDBRANCH   1   3
BRANCH   1   6
ATOM      6  C   UNL     1     114.704 127.368  97.201  1.00  0.00     0.059 C 
ATOM      7  C   UNL     1     114.909 125.850  96.960  1.00  0.00     0.026 C 
ATOM      8  C   UNL     1     113.251 127.664  97.675  1.00  0.00     0.067 C 
ATOM      9  C   UNL     1     113.967 125.309  95.869  1.00  0.00     0.059 C 
ATOM     10  C   UNL     1     112.272 126.888  96.863  1.00  0.00     0.031 A 
ATOM     11  C   UNL     1     112.579 125.809  96.061  1.00  0.00     0.057 A 
ATOM     12  S   UNL     1     110.600 127.188  96.827  1.00  0.00    -0.102 S 
ATOM     13  N   UNL     1     111.507 125.233  95.414  1.00  0.00    -0.225 NA
ATOM     14  C   UNL     1     110.404 125.861  95.746  1.00  0.00     0.180 A 
BRANCH  14  15
ATOM     15  N   UNL     1     109.196 125.520  95.268  1.00  0.00    -0.375 N 
ATOM     16  H   UNL     1     108.642 124.951  95.899  1.00  0.00     0.159 HD
ATOM     17  H   UNL     1     109.156 125.212  94.304  1.00  0.00     0.159 HD
ENDBRANCH  14  15
ENDBRANCH   1   6
TORSDOF 4
ENDMDL
MODEL 5
REMARK VINA RESULT:    -5.853      1.609      2.215
REMARK INTER + INTRA:          -7.347
REMARK INTER:                  -7.154
REMARK INTRA:                  -0.192
REMARK UNBOUND:                -0.296
REMARK SMILES CCCN[C@H]1CCc2nc(N)sc2C1
REMARK SMILES IDX 4 1 3 3 2 4 1 5 5 6 6 7 14 8 7 9 13 10 8 11 12 12 9 13 10 14
REMARK SMILES IDX 11 15
REMARK H PARENT 4 2 11 16 11 17
ROOT
ATOM      1  N   UNL     1     111.016 126.019  96.655  1.00  0.00    -0.314 NA
ATOM      2  H   UNL     1     111.487 125.465  95.941  1.00  0.00     0.122 HD
ENDROOT
BRANCH   1   3
ATOM      3  C   UNL     1     109.909 126.769  96.062  1.00  0.00     0.081 C 
BRANCH   3   4
ATOM      4  C   UNL     1     109.083 127.488  97.134  1.00  0.00     0.012 C 
ATOM      5  C   UNL     1     107.600 127.583  96.802  1.00  0.00     0.005 C 
ENDBRANCH   3   4
ENDBRANCH   1   3
BRANCH   1   6
ATOM      6  C   UNL     1     111.989 126.877  97.350  1.00  0.00     0.059 C 
ATOM      7  C   UNL     1     113.055 125.955  97.999  1.00  0.00     0.026 C 
ATOM      8  C   UNL     1     112.658 127.926  96.414  1.00  0.00     0.067 C 
ATOM      9  C   UNL     1     114.052 126.748  98.862  1.00  0.00     0.059 C 
ATOM     10  C   UNL     1     113.867 128.506  97.066  1.00  0.00     0.031 A 
ATOM     11  C   UNL     1     114.518 127.973  98.157  1.00  0.00     0.057 A 
ATOM     12  S   UNL     1     114.664 129.911  96.536  1.00  0.00    -0.102 S 
ATOM     13  N   UNL     1     115.627 128.673  98.580  1.00  0.00    -0.225 NA
ATOM     14  C   UNL     1     115.819 129.709  97.798  1.00  0.00     0.180 A 
BRANCH  14  15
ATOM     15  N   UNL     1     116.829 130.578  97.968  1.00  0.00    -0.375 N 
ATOM     16  H   UNL     1     117.677 130.164  98.338  1.00  0.00     0.159 HD
ATOM     17  H   UNL     1     116.598 131.471  98.386  1.00  0.00     0.159 HD
ENDBRANCH  14  15
ENDBRANCH   1   6
TORSDOF 4
ENDMDL
MODEL 6
REMARK VINA RESULT:    -5.693      2.328      5.478
REMARK INTER + INTRA:          -7.154
REMARK INTER:                  -6.894
REMARK INTRA:                  -0.260
REMARK UNBOUND:                -0.296
REMARK SMILES CCCN[C@H]1CCc2nc(N)sc2C1
REMARK SMILES IDX 4 1 3 3 2 4 1 5 5 6 6 7 14 8 7 9 13 10 8 11 12 12 9 13 10 14
REMARK SMILES IDX 11 15
REMARK H PARENT 4 2 11 16 11 17
ROOT
ATOM      1  N   UNL     1     114.817 129.999  96.787  1.00  0.00    -0.314 NA
ATOM      2  H   UNL     1     115.752 130.256  96.469  1.00  0.00     0.122 HD
ENDROOT
BRANCH   1   3
ATOM      3  C   UNL     1     114.636 130.390  98.184  1.00  0.00     0.081 C 
BRANCH   3   4
ATOM      4  C   UNL     1     113.674 131.577  98.313  1.00  0.00     0.012 C 
ATOM      5  C   UNL     1     112.457 131.479  97.403  1.00  0.00     0.005 C 
ENDBRANCH   3   4
ENDBRANCH   1   3
BRANCH   1   6
ATOM      6  C   UNL     1     114.581 128.565  96.551  1.00  0.00     0.059 C 
ATOM      7  C   UNL     1     115.157 127.786  97.763  1.00  0.00     0.026 C 
ATOM      8  C   UNL     1     113.080 128.220  96.331  1.00  0.00     0.067 C 
ATOM      9  C   UNL     1     115.077 126.263  97.557  1.00  0.00     0.059 C 
ATOM     10  C   UNL     1     112.861 126.751  96.459  1.00  0.00     0.031 A 
ATOM     11  C   UNL     1     113.745 125.860  97.030  1.00  0.00     0.057 A 
ATOM     12  S   UNL     1     111.456 125.940  95.953  1.00  0.00    -0.102 S 
ATOM     13  N   UNL     1     113.324 124.549  97.055  1.00  0.00    -0.225 NA
ATOM     14  C   UNL     1     112.125 124.461  96.528  1.00  0.00     0.180 A 
BRANCH  14  15
ATOM     15  N   UNL     1     111.458 123.301  96.417  1.00  0.00    -0.375 N 
ATOM     16  H   UNL     1     111.177 123.069  95.471  1.00  0.00     0.159 HD
ATOM     17  H   UNL     1     110.741 123.118  97.108  1.00  0.00     0.159 HD
ENDBRANCH  14  15
ENDBRANCH   1   6
TORSDOF 4
ENDMDL
MODEL 7
REMARK VINA RESULT:    -5.649      2.245      3.140
REMARK INTER + INTRA:          -7.100
REMARK INTER:                  -6.988
REMARK INTRA:                  -0.112
REMARK UNBOUND:                -0.296
REMARK SMILES CCCN[C@H]1CCc2nc(N)sc2C1
REMARK SMILES IDX 4 1 3 3 2 4 1 5 5 6 6 7 14 8 7 9 13 10 8 11 12 12 9 13 10 14
REMARK SMILES IDX 11 15
REMARK H PARENT 4 2 11 16 11 17
ROOT
ATOM      1  N   UNL     1     110.627 126.509  96.661  1.00  0.00    -0.314 NA
ATOM      2  H   UNL     1     110.728 125.553  96.322  1.00  0.00     0.122 HD
ENDROOT
BRANCH   1   3
ATOM      3  C   UNL     1     109.472 127.147  96.031  1.00  0.00     0.081 C 
BRANCH   3   4
ATOM      4  C   UNL     1     108.431 127.574  97.071  1.00  0.00     0.012 C 
ATOM      5  C   UNL     1     107.000 127.546  96.551  1.00  0.00     0.005 C 
ENDBRANCH   3   4
ENDBRANCH   1   3
BRANCH   1   6
ATOM      6  C   UNL     1     111.882 127.251  96.457  1.00  0.00     0.059 C 
ATOM      7  C   UNL     1     111.513 128.704  96.059  1.00  0.00     0.026 C 
ATOM      8  C   UNL     1     112.811 127.236  97.706  1.00  0.00     0.067 C 
ATOM      9  C   UNL     1     112.758 129.533  95.695  1.00  0.00     0.059 C 
ATOM     10  C   UNL     1     113.870 128.277  97.576  1.00  0.00     0.031 A 
ATOM     11  C   UNL     1     113.847 129.331  96.688  1.00  0.00     0.057 A 
ATOM     12  S   UNL     1     115.268 128.353  98.539  1.00  0.00    -0.102 S 
ATOM     13  N   UNL     1     114.929 130.182  96.758  1.00  0.00    -0.225 NA
ATOM     14  C   UNL     1     115.744 129.782  97.705  1.00  0.00     0.180 A 
BRANCH  14  15
ATOM     15  N   UNL     1     116.887 130.420  98.004  1.00  0.00    -0.375 N 
ATOM     16  H   UNL     1     117.677 130.155  97.426  1.00  0.00     0.159 HD
ATOM     17  H   UNL     1     117.116 130.510  98.987  1.00  0.00     0.159 HD
ENDBRANCH  14  15
ENDBRANCH   1   6
TORSDOF 4
ENDMDL
MODEL 8
REMARK VINA RESULT:    -5.635      2.994      4.267
REMARK INTER + INTRA:          -7.084
REMARK INTER:                  -6.884
REMARK INTRA:                  -0.200
REMARK UNBOUND:                -0.296
REMARK SMILES CCCN[C@H]1CCc2nc(N)sc2C1
REMARK SMILES IDX 4 1 3 3 2 4 1 5 5 6 6 7 14 8 7 9 13 10 8 11 12 12 9 13 10 14
REMARK SMILES IDX 11 15
REMARK H PARENT 4 2 11 16 11 17
ROOT
ATOM      1  N   UNL     1     111.562 130.303  95.145  1.00  0.00    -0.314 NA
ATOM      2  H   UNL     1     111.064 131.137  95.455  1.00  0.00     0.122 HD
ENDROOT
BRANCH   1   3
ATOM      3  C   UNL     1     110.750 129.564  94.178  1.00  0.00     0.081 C 
BRANCH   3   4
ATOM      4  C   UNL     1     110.627 130.324  92.854  1.00  0.00     0.012 C 
ATOM      5  C   UNL     1     110.391 131.818  93.026  1.00  0.00     0.005 C 
ENDBRANCH   3   4
ENDBRANCH   1   3
BRANCH   1   6
ATOM      6  C   UNL     1     111.959 129.492  96.307  1.00  0.00     0.059 C 
ATOM      7  C   UNL     1     111.684 128.004  95.963  1.00  0.00     0.026 C 
ATOM      8  C   UNL     1     113.445 129.701  96.720  1.00  0.00     0.067 C 
ATOM      9  C   UNL     1     111.945 127.079  97.165  1.00  0.00     0.059 C 
ATOM     10  C   UNL     1     113.885 128.617  97.643  1.00  0.00     0.031 A 
ATOM     11  C   UNL     1     113.228 127.420  97.837  1.00  0.00     0.057 A 
ATOM     12  S   UNL     1     115.299 128.669  98.584  1.00  0.00    -0.102 S 
ATOM     13  N   UNL     1     113.829 126.558  98.729  1.00  0.00    -0.225 NA
ATOM     14  C   UNL     1     114.937 127.095  99.182  1.00  0.00     0.180 A 
BRANCH  14  15
ATOM     15  N   UNL     1     115.737 126.482 100.071  1.00  0.00    -0.375 N 
ATOM     16  H   UNL     1     116.318 127.112 100.612  1.00  0.00     0.159 HD
ATOM     17  H   UNL     1     116.224 125.654  99.751  1.00  0.00     0.159 HD
ENDBRANCH  14  15
ENDBRANCH   1   6
TORSDOF 4
ENDMDL
MODEL 9
REMARK VINA RESULT:    -5.476      2.770      3.637
REMARK INTER + INTRA:          -6.892
REMARK INTER:                  -6.685
REMARK INTRA:                  -0.206
REMARK UNBOUND:                -0.296
REMARK SMILES CCCN[C@H]1CCc2nc(N)sc2C1
REMARK SMILES IDX 4 1 3 3 2 4 1 5 5 6 6 7 14 8 7 9 13 10 8 11 12 12 9 13 10 14
REMARK SMILES IDX 11 15
REMARK H PARENT 4 2 11 16 11 17
ROOT
ATOM      1  N   UNL     1     111.653 129.925  95.346  1.00  0.00    -0.314 NA
ATOM      2  H   UNL     1     111.292 130.796  95.736  1.00  0.00     0.122 HD
ENDROOT
BRANCH   1   3
ATOM      3  C   UNL     1     110.628 128.885  95.404  1.00  0.00     0.081 C 
BRANCH   3   4
ATOM      4  C   UNL     1     110.044 128.597  94.017  1.00  0.00     0.012 C 
ATOM      5  C   UNL     1     108.725 127.838  94.054  1.00  0.00     0.005 C 
ENDBRANCH   3   4
ENDBRANCH   1   3
BRANCH   1   6
ATOM      6  C   UNL     1     112.901 129.547  96.029  1.00  0.00     0.059 C 
ATOM      7  C   UNL     1     113.116 130.536  97.205  1.00  0.00     0.026 C 
ATOM      8  C   UNL     1     112.901 128.075  96.533  1.00  0.00     0.067 C 
ATOM      9  C   UNL     1     114.466 130.308  97.908  1.00  0.00     0.059 C 
ATOM     10  C   UNL     1     114.007 127.861  97.510  1.00  0.00     0.031 A 
ATOM     11  C   UNL     1     114.707 128.860  98.153  1.00  0.00     0.057 A 
ATOM     12  S   UNL     1     114.560 126.337  98.019  1.00  0.00    -0.102 S 
ATOM     13  N   UNL     1     115.678 128.426  99.029  1.00  0.00    -0.225 NA
ATOM     14  C   UNL     1     115.691 127.115  99.059  1.00  0.00     0.180 A 
BRANCH  14  15
ATOM     15  N   UNL     1     116.538 126.408  99.826  1.00  0.00    -0.375 N 
ATOM     16  H   UNL     1     117.230 125.881  99.307  1.00  0.00     0.159 HD
ATOM     17  H   UNL     1     116.133 125.895 100.600  1.00  0.00     0.159 HD
ENDBRANCH  14  15
ENDBRANCH   1   6
TORSDOF 4
ENDMDL
