MODEL 1
REMARK VINA RESULT:    -9.365      0.000      0.000
REMARK INTER + INTRA:         -15.175
REMARK INTER:                 -13.198
REMARK INTRA:                  -1.978
REMARK UNBOUND:                -1.978
REMARK SMILES C[C@@H](OC[C@@]1(c2ccccc2)CC[C@]2(CCC(=O)N2)CN1)c1cc(C(F)(F)F)cc(C(F)(F)F)c1
REMARK SMILES IDX 1 1 2 2 3 3 4 4 5 5 12 6 21 7 13 8 20 9 14 10 15 11 19 12
REMARK SMILES IDX 16 13 17 14 18 15 6 18 7 19 11 20 8 21 10 22 9 23 22 24
REMARK SMILES IDX 23 25 35 26 24 27 30 28 29 29 25 30 26 31 27 32 28 33 31 34
REMARK SMILES IDX 32 35 33 36 34 37
REMARK H PARENT 21 16 19 17
ROOT
ATOM      1  C   UNL     1       8.102  -1.186  -8.730  1.00  0.00     0.044 C 
ATOM      2  C   UNL     1       7.663  -0.123  -7.727  1.00  0.00     0.145 C 
ENDROOT
BRANCH   2   3
ATOM      3  O   UNL     1       7.205   1.042  -8.418  1.00  0.00    -0.372 OA
BRANCH   3   4
ATOM      4  C   UNL     1       8.060   1.431  -9.499  1.00  0.00     0.188 C 
BRANCH   4   5
ATOM      5  C   UNL     1       7.239   1.705 -10.814  1.00  0.00     0.067 C 
ATOM      6  C   UNL     1       8.046   2.722 -11.695  1.00  0.00     0.032 C 
ATOM      7  N   UNL     1       7.187   0.422 -11.549  1.00  0.00    -0.303 NA
ATOM      8  C   UNL     1       8.031   2.461 -13.210  1.00  0.00     0.032 C 
ATOM      9  C   UNL     1       6.559   0.461 -12.873  1.00  0.00     0.110 C 
ATOM     10  C   UNL     1       6.755   1.761 -13.691  1.00  0.00     0.053 C 
ATOM     11  C   UNL     1       5.539   2.701 -13.668  1.00  0.00     0.039 C 
ATOM     12  N   UNL     1       6.853   1.471 -15.110  1.00  0.00    -0.349 N 
ATOM     13  C   UNL     1       5.595   3.437 -15.008  1.00  0.00     0.102 C 
ATOM     14  C   UNL     1       6.311   2.460 -15.900  1.00  0.00     0.220 C 
ATOM     15  O   UNL     1       6.434   2.537 -17.110  1.00  0.00    -0.275 OA
ATOM     16  H   UNL     1       6.795  -0.323 -10.979  1.00  0.00     0.123 HD
ATOM     17  H   UNL     1       7.514   0.822 -15.523  1.00  0.00     0.164 HD
BRANCH   5  18
ATOM     18  C   UNL     1       5.846   2.208 -10.355  1.00  0.00    -0.026 A 
ATOM     19  C   UNL     1       4.767   1.310 -10.216  1.00  0.00     0.006 A 
ATOM     20  C   UNL     1       5.564   3.571 -10.142  1.00  0.00     0.006 A 
ATOM     21  C   UNL     1       3.495   1.742  -9.828  1.00  0.00     0.000 A 
ATOM     22  C   UNL     1       4.292   4.006  -9.753  1.00  0.00     0.000 A 
ATOM     23  C   UNL     1       3.260   3.090  -9.588  1.00  0.00     0.000 A 
ENDBRANCH   5  18
ENDBRANCH   4   5
ENDBRANCH   3   4
ENDBRANCH   2   3
BRANCH   2  24
ATOM     24  C   UNL     1       6.521  -0.637  -6.868  1.00  0.00    -0.018 A 
ATOM     25  C   UNL     1       5.354   0.129  -6.711  1.00  0.00     0.019 A 
ATOM     26  C   UNL     1       6.614  -1.866  -6.196  1.00  0.00     0.019 A 
ATOM     27  C   UNL     1       4.291  -0.322  -5.913  1.00  0.00     0.056 A 
ATOM     28  C   UNL     1       5.567  -2.342  -5.393  1.00  0.00     0.056 A 
ATOM     29  C   UNL     1       4.413  -1.554  -5.250  1.00  0.00     0.026 A 
BRANCH  27  30
ATOM     30  C   UNL     1       3.053   0.526  -5.737  1.00  0.00     0.416 C 
ATOM     31  F   UNL     1       2.286   0.138  -4.682  1.00  0.00    -0.166 F 
ATOM     32  F   UNL     1       2.232   0.502  -6.823  1.00  0.00    -0.166 F 
ATOM     33  F   UNL     1       3.353   1.836  -5.522  1.00  0.00    -0.166 F 
ENDBRANCH  27  30
BRANCH  28  34
ATOM     34  C   UNL     1       5.699  -3.657  -4.664  1.00  0.00     0.416 C 
ATOM     35  F   UNL     1       6.935  -3.823  -4.118  1.00  0.00    -0.166 F 
ATOM     36  F   UNL     1       4.816  -3.785  -3.635  1.00  0.00    -0.166 F 
ATOM     37  F   UNL     1       5.494  -4.739  -5.466  1.00  0.00    -0.166 F 
ENDBRANCH  28  34
ENDBRANCH   2  24
TORSDOF 7
ENDMDL
MODEL 2
REMARK VINA RESULT:    -9.359      0.084      3.080
REMARK INTER + INTRA:         -15.167
REMARK INTER:                 -13.181
REMARK INTRA:                  -1.985
REMARK UNBOUND:                -1.978
REMARK SMILES C[C@@H](OC[C@@]1(c2ccccc2)CC[C@]2(CCC(=O)N2)CN1)c1cc(C(F)(F)F)cc(C(F)(F)F)c1
REMARK SMILES IDX 1 1 2 2 3 3 4 4 5 5 12 6 21 7 13 8 20 9 14 10 15 11 19 12
REMARK SMILES IDX 16 13 17 14 18 15 6 18 7 19 11 20 8 21 10 22 9 23 22 24
REMARK SMILES IDX 23 25 35 26 24 27 30 28 29 29 25 30 26 31 27 32 28 33 31 34
REMARK SMILES IDX 32 35 33 36 34 37
REMARK H PARENT 21 16 19 17
ROOT
ATOM      1  C   UNL     1       8.024  -1.181  -8.683  1.00  0.00     0.044 C 
ATOM      2  C   UNL     1       7.611  -0.101  -7.685  1.00  0.00     0.145 C 
ENDROOT
BRANCH   2   3
ATOM      3  O   UNL     1       7.151   1.059  -8.384  1.00  0.00    -0.372 OA
BRANCH   3   4
ATOM      4  C   UNL     1       8.016   1.456  -9.454  1.00  0.00     0.188 C 
BRANCH   4   5
ATOM      5  C   UNL     1       7.209   1.726 -10.778  1.00  0.00     0.067 C 
ATOM      6  C   UNL     1       8.020   2.750 -11.648  1.00  0.00     0.032 C 
ATOM      7  N   UNL     1       7.174   0.444 -11.516  1.00  0.00    -0.303 NA
ATOM      8  C   UNL     1       8.025   2.490 -13.163  1.00  0.00     0.032 C 
ATOM      9  C   UNL     1       6.561   0.481 -12.847  1.00  0.00     0.110 C 
ATOM     10  C   UNL     1       6.759   1.783 -13.661  1.00  0.00     0.053 C 
ATOM     11  C   UNL     1       5.537   2.716 -13.650  1.00  0.00     0.039 C 
ATOM     12  N   UNL     1       6.876   1.497 -15.078  1.00  0.00    -0.349 N 
ATOM     13  C   UNL     1       5.604   3.455 -14.989  1.00  0.00     0.102 C 
ATOM     14  C   UNL     1       6.337   2.484 -15.873  1.00  0.00     0.220 C 
ATOM     15  O   UNL     1       6.474   2.563 -17.081  1.00  0.00    -0.275 OA
ATOM     16  H   UNL     1       6.780  -0.304 -10.951  1.00  0.00     0.123 HD
ATOM     17  H   UNL     1       7.545   0.853 -15.484  1.00  0.00     0.164 HD
BRANCH   5  18
ATOM     18  C   UNL     1       5.807   2.220 -10.335  1.00  0.00    -0.026 A 
ATOM     19  C   UNL     1       5.564   3.592 -10.117  1.00  0.00     0.006 A 
ATOM     20  C   UNL     1       4.749   1.337 -10.045  1.00  0.00     0.006 A 
ATOM     21  C   UNL     1       4.316   4.059  -9.693  1.00  0.00     0.000 A 
ATOM     22  C   UNL     1       3.499   1.802  -9.622  1.00  0.00     0.000 A 
ATOM     23  C   UNL     1       3.281   3.164  -9.454  1.00  0.00     0.000 A 
ENDBRANCH   5  18
ENDBRANCH   4   5
ENDBRANCH   3   4
ENDBRANCH   2   3
BRANCH   2  24
ATOM     24  C   UNL     1       6.480  -0.594  -6.801  1.00  0.00    -0.018 A 
ATOM     25  C   UNL     1       6.583  -1.829  -6.141  1.00  0.00     0.019 A 
ATOM     26  C   UNL     1       5.302   0.155  -6.644  1.00  0.00     0.019 A 
ATOM     27  C   UNL     1       5.543  -2.308  -5.328  1.00  0.00     0.056 A 
ATOM     28  C   UNL     1       4.248  -0.299  -5.838  1.00  0.00     0.056 A 
ATOM     29  C   UNL     1       4.376  -1.539  -5.193  1.00  0.00     0.026 A 
BRANCH  27  30
ATOM     30  C   UNL     1       5.663  -3.650  -4.645  1.00  0.00     0.416 C 
ATOM     31  F   UNL     1       5.445  -4.699  -5.485  1.00  0.00    -0.166 F 
ATOM     32  F   UNL     1       4.782  -3.806  -3.617  1.00  0.00    -0.166 F 
ATOM     33  F   UNL     1       6.900  -3.848  -4.111  1.00  0.00    -0.166 F 
ENDBRANCH  27  30
BRANCH  28  34
ATOM     34  C   UNL     1       2.984   0.515  -5.702  1.00  0.00     0.416 C 
ATOM     35  F   UNL     1       3.239   1.845  -5.557  1.00  0.00    -0.166 F 
ATOM     36  F   UNL     1       2.163   0.407  -6.784  1.00  0.00    -0.166 F 
ATOM     37  F   UNL     1       2.227   0.158  -4.626  1.00  0.00    -0.166 F 
ENDBRANCH  28  34
ENDBRANCH   2  24
TORSDOF 7
ENDMDL
MODEL 3
REMARK VINA RESULT:    -8.888      2.220      4.711
REMARK INTER + INTRA:         -14.503
REMARK INTER:                 -12.633
REMARK INTRA:                  -1.870
REMARK UNBOUND:                -1.978
REMARK SMILES C[C@@H](OC[C@@]1(c2ccccc2)CC[C@]2(CCC(=O)N2)CN1)c1cc(C(F)(F)F)cc(C(F)(F)F)c1
REMARK SMILES IDX 1 1 2 2 3 3 4 4 5 5 12 6 21 7 13 8 20 9 14 10 15 11 19 12
REMARK SMILES IDX 16 13 17 14 18 15 6 18 7 19 11 20 8 21 10 22 9 23 22 24
REMARK SMILES IDX 23 25 35 26 24 27 30 28 29 29 25 30 26 31 27 32 28 33 31 34
REMARK SMILES IDX 32 35 33 36 34 37
REMARK H PARENT 21 16 19 17
ROOT
ATOM      1  C   UNL     1       8.149  -1.454  -8.797  1.00  0.00     0.044 C 
ATOM      2  C   UNL     1       8.139  -0.547  -7.570  1.00  0.00     0.145 C 
ENDROOT
BRANCH   2   3
ATOM      3  O   UNL     1       8.016   0.820  -7.973  1.00  0.00    -0.372 OA
BRANCH   3   4
ATOM      4  C   UNL     1       7.968   0.988  -9.394  1.00  0.00     0.188 C 
BRANCH   4   5
ATOM      5  C   UNL     1       6.548   1.473  -9.871  1.00  0.00     0.067 C 
ATOM      6  C   UNL     1       5.556   0.261  -9.775  1.00  0.00     0.032 C 
ATOM      7  N   UNL     1       6.104   2.491  -8.895  1.00  0.00    -0.303 NA
ATOM      8  C   UNL     1       4.139   0.590  -9.277  1.00  0.00     0.032 C 
ATOM      9  C   UNL     1       4.745   3.013  -9.077  1.00  0.00     0.110 C 
ATOM     10  C   UNL     1       3.692   2.015  -9.618  1.00  0.00     0.053 C 
ATOM     11  C   UNL     1       3.390   2.181 -11.116  1.00  0.00     0.039 C 
ATOM     12  N   UNL     1       2.386   2.277  -9.042  1.00  0.00    -0.349 N 
ATOM     13  C   UNL     1       1.935   1.730 -11.269  1.00  0.00     0.102 C 
ATOM     14  C   UNL     1       1.352   2.012  -9.912  1.00  0.00     0.220 C 
ATOM     15  O   UNL     1       0.172   1.976  -9.607  1.00  0.00    -0.275 OA
ATOM     16  H   UNL     1       6.778   3.247  -8.807  1.00  0.00     0.123 HD
ATOM     17  H   UNL     1       2.191   2.320  -8.048  1.00  0.00     0.164 HD
BRANCH   5  18
ATOM     18  C   UNL     1       6.745   2.037 -11.302  1.00  0.00    -0.026 A 
ATOM     19  C   UNL     1       6.886   1.169 -12.405  1.00  0.00     0.006 A 
ATOM     20  C   UNL     1       6.881   3.415 -11.562  1.00  0.00     0.006 A 
ATOM     21  C   UNL     1       7.089   1.653 -13.701  1.00  0.00     0.000 A 
ATOM     22  C   UNL     1       7.083   3.901 -12.858  1.00  0.00     0.000 A 
ATOM     23  C   UNL     1       7.179   3.020 -13.929  1.00  0.00     0.000 A 
ENDBRANCH   5  18
ENDBRANCH   4   5
ENDBRANCH   3   4
ENDBRANCH   2   3
BRANCH   2  24
ATOM     24  C   UNL     1       6.961  -0.876  -6.670  1.00  0.00    -0.018 A 
ATOM     25  C   UNL     1       6.904  -2.109  -6.001  1.00  0.00     0.019 A 
ATOM     26  C   UNL     1       5.896   0.026  -6.509  1.00  0.00     0.019 A 
ATOM     27  C   UNL     1       5.819  -2.438  -5.173  1.00  0.00     0.056 A 
ATOM     28  C   UNL     1       4.800  -0.276  -5.687  1.00  0.00     0.056 A 
ATOM     29  C   UNL     1       4.767  -1.518  -5.033  1.00  0.00     0.026 A 
BRANCH  27  30
ATOM     30  C   UNL     1       5.765  -3.779  -4.479  1.00  0.00     0.416 C 
ATOM     31  F   UNL     1       5.459  -4.804  -5.321  1.00  0.00    -0.166 F 
ATOM     32  F   UNL     1       4.838  -3.826  -3.482  1.00  0.00    -0.166 F 
ATOM     33  F   UNL     1       6.953  -4.108  -3.902  1.00  0.00    -0.166 F 
ENDBRANCH  27  30
BRANCH  28  34
ATOM     34  C   UNL     1       3.658   0.701  -5.546  1.00  0.00     0.416 C 
ATOM     35  F   UNL     1       4.027   1.974  -5.861  1.00  0.00    -0.166 F 
ATOM     36  F   UNL     1       2.603   0.407  -6.356  1.00  0.00    -0.166 F 
ATOM     37  F   UNL     1       3.152   0.758  -4.283  1.00  0.00    -0.166 F 
ENDBRANCH  28  34
ENDBRANCH   2  24
TORSDOF 7
ENDMDL
MODEL 4
REMARK VINA RESULT:    -8.793      2.159      3.672
REMARK INTER + INTRA:         -14.370
REMARK INTER:                 -12.623
REMARK INTRA:                  -1.747
REMARK UNBOUND:                -1.978
REMARK SMILES C[C@@H](OC[C@@]1(c2ccccc2)CC[C@]2(CCC(=O)N2)CN1)c1cc(C(F)(F)F)cc(C(F)(F)F)c1
REMARK SMILES IDX 1 1 2 2 3 3 4 4 5 5 12 6 21 7 13 8 20 9 14 10 15 11 19 12
REMARK SMILES IDX 16 13 17 14 18 15 6 18 7 19 11 20 8 21 10 22 9 23 22 24
REMARK SMILES IDX 23 25 35 26 24 27 30 28 29 29 25 30 26 31 27 32 28 33 31 34
REMARK SMILES IDX 32 35 33 36 34 37
REMARK H PARENT 21 16 19 17
ROOT
ATOM      1  C   UNL     1       8.149  -1.282  -8.944  1.00  0.00     0.044 C 
ATOM      2  C   UNL     1       8.092  -0.389  -7.707  1.00  0.00     0.145 C 
ENDROOT
BRANCH   2   3
ATOM      3  O   UNL     1       7.943   0.979  -8.099  1.00  0.00    -0.372 OA
BRANCH   3   4
ATOM      4  C   UNL     1       7.937   1.163  -9.519  1.00  0.00     0.188 C 
BRANCH   4   5
ATOM      5  C   UNL     1       6.511   1.578 -10.041  1.00  0.00     0.067 C 
ATOM      6  C   UNL     1       5.559   0.338  -9.912  1.00  0.00     0.032 C 
ATOM      7  N   UNL     1       6.013   2.620  -9.116  1.00  0.00    -0.303 NA
ATOM      8  C   UNL     1       4.122   0.636  -9.454  1.00  0.00     0.032 C 
ATOM      9  C   UNL     1       4.642   3.085  -9.344  1.00  0.00     0.110 C 
ATOM     10  C   UNL     1       3.633   2.030  -9.862  1.00  0.00     0.053 C 
ATOM     11  C   UNL     1       3.355   2.124 -11.371  1.00  0.00     0.039 C 
ATOM     12  N   UNL     1       2.309   2.270  -9.321  1.00  0.00    -0.349 N 
ATOM     13  C   UNL     1       1.920   1.616 -11.531  1.00  0.00     0.102 C 
ATOM     14  C   UNL     1       1.301   1.933 -10.197  1.00  0.00     0.220 C 
ATOM     15  O   UNL     1       0.118   1.868  -9.912  1.00  0.00    -0.275 OA
ATOM     16  H   UNL     1       6.659   3.402  -9.047  1.00  0.00     0.123 HD
ATOM     17  H   UNL     1       2.093   2.347  -8.333  1.00  0.00     0.164 HD
BRANCH   5  18
ATOM     18  C   UNL     1       6.716   2.090 -11.490  1.00  0.00    -0.026 A 
ATOM     19  C   UNL     1       6.800   1.184 -12.568  1.00  0.00     0.006 A 
ATOM     20  C   UNL     1       6.915   3.451 -11.793  1.00  0.00     0.006 A 
ATOM     21  C   UNL     1       7.009   1.619 -13.880  1.00  0.00     0.000 A 
ATOM     22  C   UNL     1       7.124   3.889 -13.106  1.00  0.00     0.000 A 
ATOM     23  C   UNL     1       7.163   2.973 -14.150  1.00  0.00     0.000 A 
ENDBRANCH   5  18
ENDBRANCH   4   5
ENDBRANCH   3   4
ENDBRANCH   2   3
BRANCH   2  24
ATOM     24  C   UNL     1       6.905  -0.757  -6.835  1.00  0.00    -0.018 A 
ATOM     25  C   UNL     1       5.851   0.153  -6.654  1.00  0.00     0.019 A 
ATOM     26  C   UNL     1       6.846  -1.994  -6.173  1.00  0.00     0.019 A 
ATOM     27  C   UNL     1       4.749  -0.163  -5.843  1.00  0.00     0.056 A 
ATOM     28  C   UNL     1       5.757  -2.336  -5.358  1.00  0.00     0.056 A 
ATOM     29  C   UNL     1       4.719  -1.407  -5.191  1.00  0.00     0.026 A 
BRANCH  27  30
ATOM     30  C   UNL     1       3.635   0.838  -5.642  1.00  0.00     0.416 C 
ATOM     31  F   UNL     1       3.141   0.839  -4.373  1.00  0.00    -0.166 F 
ATOM     32  F   UNL     1       2.567   0.618  -6.458  1.00  0.00    -0.166 F 
ATOM     33  F   UNL     1       4.040   2.114  -5.888  1.00  0.00    -0.166 F 
ENDBRANCH  27  30
BRANCH  28  34
ATOM     34  C   UNL     1       5.727  -3.665  -4.641  1.00  0.00     0.416 C 
ATOM     35  F   UNL     1       5.455  -4.700  -5.482  1.00  0.00    -0.166 F 
ATOM     36  F   UNL     1       6.911  -3.972  -4.041  1.00  0.00    -0.166 F 
ATOM     37  F   UNL     1       4.786  -3.723  -3.657  1.00  0.00    -0.166 F 
ENDBRANCH  28  34
ENDBRANCH   2  24
TORSDOF 7
ENDMDL
MODEL 5
REMARK VINA RESULT:    -6.915      1.451      2.103
REMARK INTER + INTRA:         -11.722
REMARK INTER:                 -11.513
REMARK INTRA:                  -0.209
REMARK UNBOUND:                -1.978
REMARK SMILES C[C@@H](OC[C@@]1(c2ccccc2)CC[C@]2(CCC(=O)N2)CN1)c1cc(C(F)(F)F)cc(C(F)(F)F)c1
REMARK SMILES IDX 1 1 2 2 3 3 4 4 5 5 12 6 21 7 13 8 20 9 14 10 15 11 19 12
REMARK SMILES IDX 16 13 17 14 18 15 6 18 7 19 11 20 8 21 10 22 9 23 22 24
REMARK SMILES IDX 23 25 35 26 24 27 30 28 29 29 25 30 26 31 27 32 28 33 31 34
REMARK SMILES IDX 32 35 33 36 34 37
REMARK H PARENT 21 16 19 17
ROOT
ATOM      1  C   UNL     1       5.887   3.467  -7.355  1.00  0.00     0.044 C 
ATOM      2  C   UNL     1       5.521   2.112  -7.956  1.00  0.00     0.145 C 
ENDROOT
BRANCH   2   3
ATOM      3  O   UNL     1       6.587   1.641  -8.785  1.00  0.00    -0.372 OA
BRANCH   3   4
ATOM      4  C   UNL     1       7.086   2.636  -9.685  1.00  0.00     0.188 C 
BRANCH   4   5
ATOM      5  C   UNL     1       6.335   2.594 -11.068  1.00  0.00     0.067 C 
ATOM      6  C   UNL     1       6.807   3.822 -11.923  1.00  0.00     0.032 C 
ATOM      7  N   UNL     1       6.794   1.367 -11.756  1.00  0.00    -0.303 NA
ATOM      8  C   UNL     1       7.010   3.558 -13.424  1.00  0.00     0.032 C 
ATOM      9  C   UNL     1       6.304   1.172 -13.124  1.00  0.00     0.110 C 
ATOM     10  C   UNL     1       6.103   2.451 -13.973  1.00  0.00     0.053 C 
ATOM     11  C   UNL     1       4.638   2.906 -14.076  1.00  0.00     0.039 C 
ATOM     12  N   UNL     1       6.414   2.202 -15.368  1.00  0.00    -0.349 N 
ATOM     13  C   UNL     1       4.545   3.604 -15.435  1.00  0.00     0.102 C 
ATOM     14  C   UNL     1       5.629   2.931 -16.233  1.00  0.00     0.220 C 
ATOM     15  O   UNL     1       5.818   3.035 -17.432  1.00  0.00    -0.275 OA
ATOM     16  H   UNL     1       6.640   0.538 -11.190  1.00  0.00     0.123 HD
ATOM     17  H   UNL     1       7.291   1.822 -15.706  1.00  0.00     0.164 HD
BRANCH   5  18
ATOM     18  C   UNL     1       4.820   2.581 -10.733  1.00  0.00    -0.026 A 
ATOM     19  C   UNL     1       4.218   3.678 -10.084  1.00  0.00     0.006 A 
ATOM     20  C   UNL     1       4.000   1.462 -10.974  1.00  0.00     0.006 A 
ATOM     21  C   UNL     1       2.860   3.681  -9.750  1.00  0.00     0.000 A 
ATOM     22  C   UNL     1       2.641   1.462 -10.641  1.00  0.00     0.000 A 
ATOM     23  C   UNL     1       2.069   2.575 -10.036  1.00  0.00     0.000 A 
ENDBRANCH   5  18
ENDBRANCH   4   5
ENDBRANCH   3   4
ENDBRANCH   2   3
BRANCH   2  24
ATOM     24  C   UNL     1       5.292   1.086  -6.861  1.00  0.00    -0.018 A 
ATOM     25  C   UNL     1       4.067   1.042  -6.177  1.00  0.00     0.019 A 
ATOM     26  C   UNL     1       6.301   0.181  -6.492  1.00  0.00     0.019 A 
ATOM     27  C   UNL     1       3.838   0.107  -5.154  1.00  0.00     0.056 A 
ATOM     28  C   UNL     1       6.100  -0.763  -5.474  1.00  0.00     0.056 A 
ATOM     29  C   UNL     1       4.867  -0.783  -4.804  1.00  0.00     0.026 A 
BRANCH  27  30
ATOM     30  C   UNL     1       2.522   0.091  -4.413  1.00  0.00     0.416 C 
ATOM     31  F   UNL     1       2.650   0.382  -3.090  1.00  0.00    -0.166 F 
ATOM     32  F   UNL     1       1.893  -1.117  -4.470  1.00  0.00    -0.166 F 
ATOM     33  F   UNL     1       1.638   0.998  -4.914  1.00  0.00    -0.166 F 
ENDBRANCH  27  30
BRANCH  28  34
ATOM     34  C   UNL     1       7.207  -1.712  -5.081  1.00  0.00     0.416 C 
ATOM     35  F   UNL     1       7.894  -1.278  -3.989  1.00  0.00    -0.166 F 
ATOM     36  F   UNL     1       6.754  -2.957  -4.768  1.00  0.00    -0.166 F 
ATOM     37  F   UNL     1       8.135  -1.891  -6.063  1.00  0.00    -0.166 F 
ENDBRANCH  28  34
ENDBRANCH   2  24
TORSDOF 7
ENDMDL
